<?xml version="1.0"?>
<VTKFile type="UnstructuredGrid"  version="0.1"  >
<UnstructuredGrid>
<Piece  NumberOfPoints="101" NumberOfCells="100">
<Points>
<DataArray  type="Float64"  NumberOfComponents="3"  format="ascii">0 0 0  0.01 0 0  0.02 0 0  0.03 0 0  0.04 0 0  0.05 0 0  0.06 0 0  0.07000000000000001 0 0  0.08 0 0  0.09 0 0  0.1 0 0  0.11 0 0  0.12 0 0  0.13 0 0  0.14 0 0  0.15 0 0  0.16 0 0  0.17 0 0  0.18 0 0  0.19 0 0  0.2 0 0  0.21 0 0  0.22 0 0  0.23 0 0  0.24 0 0  0.25 0 0  0.26 0 0  0.27 0 0  0.28 0 0  0.29 0 0  0.3 0 0  0.31 0 0  0.32 0 0  0.33 0 0  0.34 0 0  0.35 0 0  0.36 0 0  0.37 0 0  0.38 0 0  0.39 0 0  0.4 0 0  0.41 0 0  0.42 0 0  0.43 0 0  0.44 0 0  0.45 0 0  0.46 0 0  0.47 0 0  0.48 0 0  0.49 0 0  0.5 0 0  0.51 0 0  0.52 0 0  0.53 0 0  0.54 0 0  0.55 0 0  0.5600000000000001 0 0  0.57 0 0  0.58 0 0  0.59 0 0  0.6 0 0  0.61 0 0  0.62 0 0  0.63 0 0  0.64 0 0  0.65 0 0  0.66 0 0  0.67 0 0  0.68 0 0  0.6899999999999999 0 0  0.7 0 0  0.71 0 0  0.72 0 0  0.73 0 0  0.74 0 0  0.75 0 0  0.76 0 0  0.77 0 0  0.78 0 0  0.79 0 0  0.8 0 0  0.8100000000000001 0 0  0.82 0 0  0.83 0 0  0.84 0 0  0.85 0 0  0.86 0 0  0.87 0 0  0.88 0 0  0.89 0 0  0.9 0 0  0.91 0 0  0.92 0 0  0.93 0 0  0.9399999999999999 0 0  0.95 0 0  0.96 0 0  0.97 0 0  0.98 0 0  0.99 0 0  1 0 0  </DataArray>
</Points>
<Cells>
<DataArray  type="UInt32"  Name="connectivity"  format="ascii">0 1  1 2  2 3  3 4  4 5  5 6  6 7  7 8  8 9  9 10  10 11  11 12  12 13  13 14  14 15  15 16  16 17  17 18  18 19  19 20  20 21  21 22  22 23  23 24  24 25  25 26  26 27  27 28  28 29  29 30  30 31  31 32  32 33  33 34  34 35  35 36  36 37  37 38  38 39  39 40  40 41  41 42  42 43  43 44  44 45  45 46  46 47  47 48  48 49  49 50  50 51  51 52  52 53  53 54  54 55  55 56  56 57  57 58  58 59  59 60  60 61  61 62  62 63  63 64  64 65  65 66  66 67  67 68  68 69  69 70  70 71  71 72  72 73  73 74  74 75  75 76  76 77  77 78  78 79  79 80  80 81  81 82  82 83  83 84  84 85  85 86  86 87  87 88  88 89  89 90  90 91  91 92  92 93  93 94  94 95  95 96  96 97  97 98  98 99  99 100  </DataArray>
<DataArray  type="UInt32"  Name="offsets"  format="ascii">2 4 6 8 10 12 14 16 18 20 22 24 26 28 30 32 34 36 38 40 42 44 46 48 50 52 54 56 58 60 62 64 66 68 70 72 74 76 78 80 82 84 86 88 90 92 94 96 98 100 102 104 106 108 110 112 114 116 118 120 122 124 126 128 130 132 134 136 138 140 142 144 146 148 150 152 154 156 158 160 162 164 166 168 170 172 174 176 178 180 182 184 186 188 190 192 194 196 198 200 </DataArray>
<DataArray  type="UInt8"  Name="types"  format="ascii">3 3 3 3 3 3 3 3 3 3 3 3 3 3 3 3 3 3 3 3 3 3 3 3 3 3 3 3 3 3 3 3 3 3 3 3 3 3 3 3 3 3 3 3 3 3 3 3 3 3 3 3 3 3 3 3 3 3 3 3 3 3 3 3 3 3 3 3 3 3 3 3 3 3 3 3 3 3 3 3 3 3 3 3 3 3 3 3 3 3 3 3 3 3 3 3 3 3 3 3 </DataArray>
</Cells>
<PointData  Scalars="f_13"> 
<DataArray  type="Float64"  Name="f_13"  format="ascii">9.8876510065072091e+02  9.9750640884500331e+02  1.0064269773113340e+03  1.0155810669825886e+03  1.0250120274951810e+03  1.0347564792722981e+03  1.0448473800481179e+03  1.0553162411035560e+03  1.0661947035350358e+03  1.0775156395655129e+03  1.0893139070651241e+03  1.1016268558546508e+03  1.1144946608469679e+03  1.1279605385757998e+03  1.1420708892348543e+03  1.1568753952073648e+03  1.1724270985391047e+03  1.1887824733470802e+03  1.2060015043135190e+03  1.2241477788299233e+03  1.2432885977411577e+03  1.2634951077673229e+03  1.2848424573729126e+03  1.3074099769693682e+03  1.3312813837710187e+03  1.3565450112928645e+03  1.3832940633187920e+03  1.4116268921329915e+03  1.4416473008599883e+03  1.4734648698734497e+03  1.5071953073916163e+03  1.5429608245640720e+03  1.5808905355611175e+03  1.6211208833968531e+03  1.6637960924462614e+03  1.7090686488529784e+03  1.7570998102672379e+03  1.8080601466028995e+03  1.8621301137594903e+03  1.9195006625212739e+03  1.9803738851224095e+03  2.0449637022573779e+03  2.1134965936213239e+03  2.1862123753881160e+03  2.2633650283771099e+03  2.3452235810250281e+03  2.4320730516691360e+03  2.5242154550638452e+03  2.6219708784965201e+03  2.7256786333406603e+03  2.8356984883864066e+03  2.9524119918192455e+03  3.0762238892770283e+03  3.2075636460009860e+03  3.3468870817052111e+03  3.4946781274165974e+03  3.6514507141772770e+03  3.8177508041461065e+03  3.9941585752744377e+03  4.1812907713513678e+03  4.3798032297994159e+03  4.5903936001340116e+03  4.8138042664573231e+03  5.0508254877125855e+03  5.3022987696495284e+03  5.5691204825108698e+03  5.8522457383068868e+03  6.1526925411590300e+03  6.4715462235217319e+03  6.8099641800904446e+03  7.1691809098320246e+03  7.5505133747946056e+03  7.9553666821432216e+03  8.3852400932171295e+03  8.8417333603374427e+03  9.3265533886735684e+03  9.8415212168313174e+03  1.0388579306169642e+04  1.0969799125524803e+04  1.1587389015527191e+04  1.2243702315772420e+04  1.2941245739797228e+04  1.3682687988563599e+04  1.4470868604962729e+04  1.5308807092412491e+04  1.6199712353558172e+04  1.7146992555204870e+04  1.8154265599247763e+04  1.9225370484803338e+04  2.0364379994718551e+04  2.1575615343964877e+04  2.2863663705754374e+04  2.4233399905892940e+04  2.5690014074968265e+04  2.7239047706344281e+04  2.8886441428516213e+04  3.0638598915300121e+04  3.2502472788969983e+04  3.4485680193080974e+04  3.6596658007351238e+04  3.8844870539871641e+04  </DataArray> 
</PointData> 
</Piece>
</UnstructuredGrid>
</VTKFile>