<?xml version="1.0"?>
<VTKFile type="UnstructuredGrid"  version="0.1"  >
<UnstructuredGrid>
<Piece  NumberOfPoints="101" NumberOfCells="100">
<Points>
<DataArray  type="Float64"  NumberOfComponents="3"  format="ascii">0 0 0  0.01 0 0  0.02 0 0  0.03 0 0  0.04 0 0  0.05 0 0  0.06 0 0  0.07000000000000001 0 0  0.08 0 0  0.09 0 0  0.1 0 0  0.11 0 0  0.12 0 0  0.13 0 0  0.14 0 0  0.15 0 0  0.16 0 0  0.17 0 0  0.18 0 0  0.19 0 0  0.2 0 0  0.21 0 0  0.22 0 0  0.23 0 0  0.24 0 0  0.25 0 0  0.26 0 0  0.27 0 0  0.28 0 0  0.29 0 0  0.3 0 0  0.31 0 0  0.32 0 0  0.33 0 0  0.34 0 0  0.35 0 0  0.36 0 0  0.37 0 0  0.38 0 0  0.39 0 0  0.4 0 0  0.41 0 0  0.42 0 0  0.43 0 0  0.44 0 0  0.45 0 0  0.46 0 0  0.47 0 0  0.48 0 0  0.49 0 0  0.5 0 0  0.51 0 0  0.52 0 0  0.53 0 0  0.54 0 0  0.55 0 0  0.5600000000000001 0 0  0.57 0 0  0.58 0 0  0.59 0 0  0.6 0 0  0.61 0 0  0.62 0 0  0.63 0 0  0.64 0 0  0.65 0 0  0.66 0 0  0.67 0 0  0.68 0 0  0.6899999999999999 0 0  0.7 0 0  0.71 0 0  0.72 0 0  0.73 0 0  0.74 0 0  0.75 0 0  0.76 0 0  0.77 0 0  0.78 0 0  0.79 0 0  0.8 0 0  0.8100000000000001 0 0  0.82 0 0  0.83 0 0  0.84 0 0  0.85 0 0  0.86 0 0  0.87 0 0  0.88 0 0  0.89 0 0  0.9 0 0  0.91 0 0  0.92 0 0  0.93 0 0  0.9399999999999999 0 0  0.95 0 0  0.96 0 0  0.97 0 0  0.98 0 0  0.99 0 0  1 0 0  </DataArray>
</Points>
<Cells>
<DataArray  type="UInt32"  Name="connectivity"  format="ascii">0 1  1 2  2 3  3 4  4 5  5 6  6 7  7 8  8 9  9 10  10 11  11 12  12 13  13 14  14 15  15 16  16 17  17 18  18 19  19 20  20 21  21 22  22 23  23 24  24 25  25 26  26 27  27 28  28 29  29 30  30 31  31 32  32 33  33 34  34 35  35 36  36 37  37 38  38 39  39 40  40 41  41 42  42 43  43 44  44 45  45 46  46 47  47 48  48 49  49 50  50 51  51 52  52 53  53 54  54 55  55 56  56 57  57 58  58 59  59 60  60 61  61 62  62 63  63 64  64 65  65 66  66 67  67 68  68 69  69 70  70 71  71 72  72 73  73 74  74 75  75 76  76 77  77 78  78 79  79 80  80 81  81 82  82 83  83 84  84 85  85 86  86 87  87 88  88 89  89 90  90 91  91 92  92 93  93 94  94 95  95 96  96 97  97 98  98 99  99 100  </DataArray>
<DataArray  type="UInt32"  Name="offsets"  format="ascii">2 4 6 8 10 12 14 16 18 20 22 24 26 28 30 32 34 36 38 40 42 44 46 48 50 52 54 56 58 60 62 64 66 68 70 72 74 76 78 80 82 84 86 88 90 92 94 96 98 100 102 104 106 108 110 112 114 116 118 120 122 124 126 128 130 132 134 136 138 140 142 144 146 148 150 152 154 156 158 160 162 164 166 168 170 172 174 176 178 180 182 184 186 188 190 192 194 196 198 200 </DataArray>
<DataArray  type="UInt8"  Name="types"  format="ascii">3 3 3 3 3 3 3 3 3 3 3 3 3 3 3 3 3 3 3 3 3 3 3 3 3 3 3 3 3 3 3 3 3 3 3 3 3 3 3 3 3 3 3 3 3 3 3 3 3 3 3 3 3 3 3 3 3 3 3 3 3 3 3 3 3 3 3 3 3 3 3 3 3 3 3 3 3 3 3 3 3 3 3 3 3 3 3 3 3 3 3 3 3 3 3 3 3 3 3 3 </DataArray>
</Cells>
<PointData  Scalars="f_13"> 
<DataArray  type="Float64"  Name="f_13"  format="ascii">9.5753370258913776e+02  9.6022393589378009e+02  9.6316438665215583e+02  9.6627596515682467e+02  9.6950264419270957e+02  9.7280608752827516e+02  9.7616148786434451e+02  9.7955435454991903e+02  9.8297804579117076e+02  9.8643188328319923e+02  9.8991972149418405e+02  9.9344887104857730e+02  9.9702929723206807e+02  1.0006730317232849e+03  1.0043937491605539e+03  1.0082064708076288e+03  1.0121273659748249e+03  1.0161736284489707e+03  1.0203634103606940e+03  1.0247157999689614e+03  1.0292508330081241e+03  1.0339895297109179e+03  1.0389539515418089e+03  1.0441672731674430e+03  1.0496538663483618e+03  1.0554393933324116e+03  1.0615509080232655e+03  1.0680169637326983e+03  1.0748677267381338e+03  1.0821350951853078e+03  1.0898528231212413e+03  1.0980566496319288e+03  1.1067844332053212e+03  1.1160762915535240e+03  1.1259747472165952e+03  1.1365248793401352e+03  1.1477744820749069e+03  1.1597742300928733e+03  1.1725778517533554e+03  1.1862423104880179e+03  1.2008279950060657e+03  1.2163989189531346e+03  1.2330229306902850e+03  1.2507719338945499e+03  1.2697221197207784e+03  1.2899542113070845e+03  1.3115537214540836e+03  1.3346112243622122e+03  1.3592226423727332e+03  1.3854895487275146e+03  1.4135194874412705e+03  1.4434263114686773e+03  1.4753305404486459e+03  1.5093597394200408e+03  1.5456489200283738e+03  1.5843409658824457e+03  1.6255870838745993e+03  1.6695472834491216e+03  1.7163908859911946e+03  1.7662970667143354e+03  1.8194554316478957e+03  1.8760666325679319e+03  1.9363430229741921e+03  2.0005093584919200e+03  2.0688035453675925e+03  2.1414774410292007e+03  2.2187977109892363e+03  2.3010467466748732e+03  2.3885236490646207e+03  2.4815452832798424e+03  2.5804474095035639e+03  2.6855858957517548e+03  2.7973380180688396e+03  2.9161038536126957e+03  3.0423077717732463e+03  3.1764000278512476e+03  3.3188584628030185e+03  3.4701903109923751e+03  3.6309341155999346e+03  3.8016617480840496e+03  3.9829805235579056e+03  4.1755353977437926e+03  4.3800112227720701e+03  4.5971350278444106e+03  4.8276782758252330e+03  5.0724590270692242e+03  5.3323439158400042e+03  5.6082498107459041e+03  5.9011449864500410e+03  6.2120495766313452e+03  6.5420350041433167e+03  6.8922219889397229e+03  7.2637766118067775e+03  7.6579037549430059e+03  8.0758370397462786e+03  8.5188241262040920e+03  8.9881059124396215e+03  9.4848877588604064e+03  1.0010300335814667e+04  1.0565347027417118e+04  1.1150833980207186e+04  </DataArray> 
</PointData> 
</Piece>
</UnstructuredGrid>
</VTKFile>