<?xml version="1.0"?>
<VTKFile type="UnstructuredGrid"  version="0.1"  >
<UnstructuredGrid>
<Piece  NumberOfPoints="101" NumberOfCells="100">
<Points>
<DataArray  type="Float64"  NumberOfComponents="3"  format="ascii">0 0 0  0.01 0 0  0.02 0 0  0.03 0 0  0.04 0 0  0.05 0 0  0.06 0 0  0.07000000000000001 0 0  0.08 0 0  0.09 0 0  0.1 0 0  0.11 0 0  0.12 0 0  0.13 0 0  0.14 0 0  0.15 0 0  0.16 0 0  0.17 0 0  0.18 0 0  0.19 0 0  0.2 0 0  0.21 0 0  0.22 0 0  0.23 0 0  0.24 0 0  0.25 0 0  0.26 0 0  0.27 0 0  0.28 0 0  0.29 0 0  0.3 0 0  0.31 0 0  0.32 0 0  0.33 0 0  0.34 0 0  0.35 0 0  0.36 0 0  0.37 0 0  0.38 0 0  0.39 0 0  0.4 0 0  0.41 0 0  0.42 0 0  0.43 0 0  0.44 0 0  0.45 0 0  0.46 0 0  0.47 0 0  0.48 0 0  0.49 0 0  0.5 0 0  0.51 0 0  0.52 0 0  0.53 0 0  0.54 0 0  0.55 0 0  0.5600000000000001 0 0  0.57 0 0  0.58 0 0  0.59 0 0  0.6 0 0  0.61 0 0  0.62 0 0  0.63 0 0  0.64 0 0  0.65 0 0  0.66 0 0  0.67 0 0  0.68 0 0  0.6899999999999999 0 0  0.7 0 0  0.71 0 0  0.72 0 0  0.73 0 0  0.74 0 0  0.75 0 0  0.76 0 0  0.77 0 0  0.78 0 0  0.79 0 0  0.8 0 0  0.8100000000000001 0 0  0.82 0 0  0.83 0 0  0.84 0 0  0.85 0 0  0.86 0 0  0.87 0 0  0.88 0 0  0.89 0 0  0.9 0 0  0.91 0 0  0.92 0 0  0.93 0 0  0.9399999999999999 0 0  0.95 0 0  0.96 0 0  0.97 0 0  0.98 0 0  0.99 0 0  1 0 0  </DataArray>
</Points>
<Cells>
<DataArray  type="UInt32"  Name="connectivity"  format="ascii">0 1  1 2  2 3  3 4  4 5  5 6  6 7  7 8  8 9  9 10  10 11  11 12  12 13  13 14  14 15  15 16  16 17  17 18  18 19  19 20  20 21  21 22  22 23  23 24  24 25  25 26  26 27  27 28  28 29  29 30  30 31  31 32  32 33  33 34  34 35  35 36  36 37  37 38  38 39  39 40  40 41  41 42  42 43  43 44  44 45  45 46  46 47  47 48  48 49  49 50  50 51  51 52  52 53  53 54  54 55  55 56  56 57  57 58  58 59  59 60  60 61  61 62  62 63  63 64  64 65  65 66  66 67  67 68  68 69  69 70  70 71  71 72  72 73  73 74  74 75  75 76  76 77  77 78  78 79  79 80  80 81  81 82  82 83  83 84  84 85  85 86  86 87  87 88  88 89  89 90  90 91  91 92  92 93  93 94  94 95  95 96  96 97  97 98  98 99  99 100  </DataArray>
<DataArray  type="UInt32"  Name="offsets"  format="ascii">2 4 6 8 10 12 14 16 18 20 22 24 26 28 30 32 34 36 38 40 42 44 46 48 50 52 54 56 58 60 62 64 66 68 70 72 74 76 78 80 82 84 86 88 90 92 94 96 98 100 102 104 106 108 110 112 114 116 118 120 122 124 126 128 130 132 134 136 138 140 142 144 146 148 150 152 154 156 158 160 162 164 166 168 170 172 174 176 178 180 182 184 186 188 190 192 194 196 198 200 </DataArray>
<DataArray  type="UInt8"  Name="types"  format="ascii">3 3 3 3 3 3 3 3 3 3 3 3 3 3 3 3 3 3 3 3 3 3 3 3 3 3 3 3 3 3 3 3 3 3 3 3 3 3 3 3 3 3 3 3 3 3 3 3 3 3 3 3 3 3 3 3 3 3 3 3 3 3 3 3 3 3 3 3 3 3 3 3 3 3 3 3 3 3 3 3 3 3 3 3 3 3 3 3 3 3 3 3 3 3 3 3 3 3 3 3 </DataArray>
</Cells>
<PointData  Scalars="f_13"> 
<DataArray  type="Float64"  Name="f_13"  format="ascii">3.1055936230132552e+03  3.1136015306810814e+03  3.1318155235401186e+03  3.1600889581207839e+03  3.1983464408133550e+03  3.2465760288681495e+03  3.3048230311283924e+03  3.3731851584445239e+03  3.4518088045304621e+03  3.5408862678485157e+03  3.6406537529642792e+03  3.7513900151267285e+03  3.8734155343376628e+03  4.0070921248295786e+03  4.1528229027675134e+03  4.3110525493149498e+03  4.4822678181938072e+03  4.6669982467835571e+03  4.8658170379064086e+03  5.0793420859853777e+03  5.3082371264718668e+03  5.5532129915281475e+03  5.8150289581016195e+03  6.0944941769009856e+03  6.3924691725150669e+03  6.7098674061164575e+03  7.0476568929590612e+03  7.4068618672880521e+03  7.7885644873955507e+03  8.1939065734256201e+03  8.6240913701977515e+03  9.0803853268099865e+03  9.5641198841254554e+03  1.0076693260457465e+04  1.0619572224862761e+04  1.1194293846440109e+04  1.1802467206920061e+04  1.2445775062627130e+04  1.3125975440602460e+04  1.3844903152296683e+04  1.4604471206782739e+04  1.5406672103900137e+04  1.6253578986129467e+04  1.7147346626313280e+04  1.8090212226592907e+04  1.9084496002126925e+04  2.0132601521304932e+04  2.1237015772280825e+04  2.2400308923735887e+04  2.3625133745858930e+04  2.4914224655618029e+04  2.6270396348515944e+04  2.7696541977195859e+04  2.9195630835522625e+04  3.0770705505140402e+04  3.2424878420036253e+04  3.4161327803360662e+04  3.5983292929714167e+04  3.7894068665351318e+04  3.9896999238328302e+04  4.1995471190582793e+04  4.4192905464333708e+04  4.6492748576078950e+04  4.8898462832896963e+04  5.1413515547764051e+04  5.4041367213212579e+04  5.6785458595884469e+04  5.9649196718363797e+04  6.2635939699045761e+04  6.5748980425610367e+04  6.8991529042740280e+04  7.2366694239780598e+04  7.5877463328691898e+04  7.9526681106337011e+04  8.3317027497108211e+04  8.7250993971114891e+04  9.1330858728252395e+04  9.5558660627678284e+04  9.9936171823229583e+04  1.0446486903517538e+05  1.0914590334368289e+05  1.1398006832479946e+05  1.1896776625980945e+05  1.2410897202637201e+05  1.2940319411619804e+05  1.3484943200875050e+05  1.4044612885115363e+05  1.4619111803668388e+05  1.5208156182119515e+05  1.5811387954976363e+05  1.6428366236397301e+05  1.7058557040142934e+05  1.7701320746062949e+05  1.8355896686445508e+05  1.9021384079563970e+05  1.9696718368498245e+05  2.0380641830560393e+05  2.1071667107786876e+05  2.1768032075671520e+05  2.2467644222563360e+05  2.3168012467305371e+05  </DataArray> 
</PointData> 
</Piece>
</UnstructuredGrid>
</VTKFile>