<?xml version="1.0"?>
<VTKFile type="UnstructuredGrid"  version="0.1"  >
<UnstructuredGrid>
<Piece  NumberOfPoints="101" NumberOfCells="100">
<Points>
<DataArray  type="Float64"  NumberOfComponents="3"  format="ascii">0 0 0  0.01 0 0  0.02 0 0  0.03 0 0  0.04 0 0  0.05 0 0  0.06 0 0  0.07000000000000001 0 0  0.08 0 0  0.09 0 0  0.1 0 0  0.11 0 0  0.12 0 0  0.13 0 0  0.14 0 0  0.15 0 0  0.16 0 0  0.17 0 0  0.18 0 0  0.19 0 0  0.2 0 0  0.21 0 0  0.22 0 0  0.23 0 0  0.24 0 0  0.25 0 0  0.26 0 0  0.27 0 0  0.28 0 0  0.29 0 0  0.3 0 0  0.31 0 0  0.32 0 0  0.33 0 0  0.34 0 0  0.35 0 0  0.36 0 0  0.37 0 0  0.38 0 0  0.39 0 0  0.4 0 0  0.41 0 0  0.42 0 0  0.43 0 0  0.44 0 0  0.45 0 0  0.46 0 0  0.47 0 0  0.48 0 0  0.49 0 0  0.5 0 0  0.51 0 0  0.52 0 0  0.53 0 0  0.54 0 0  0.55 0 0  0.5600000000000001 0 0  0.57 0 0  0.58 0 0  0.59 0 0  0.6 0 0  0.61 0 0  0.62 0 0  0.63 0 0  0.64 0 0  0.65 0 0  0.66 0 0  0.67 0 0  0.68 0 0  0.6899999999999999 0 0  0.7 0 0  0.71 0 0  0.72 0 0  0.73 0 0  0.74 0 0  0.75 0 0  0.76 0 0  0.77 0 0  0.78 0 0  0.79 0 0  0.8 0 0  0.8100000000000001 0 0  0.82 0 0  0.83 0 0  0.84 0 0  0.85 0 0  0.86 0 0  0.87 0 0  0.88 0 0  0.89 0 0  0.9 0 0  0.91 0 0  0.92 0 0  0.93 0 0  0.9399999999999999 0 0  0.95 0 0  0.96 0 0  0.97 0 0  0.98 0 0  0.99 0 0  1 0 0  </DataArray>
</Points>
<Cells>
<DataArray  type="UInt32"  Name="connectivity"  format="ascii">0 1  1 2  2 3  3 4  4 5  5 6  6 7  7 8  8 9  9 10  10 11  11 12  12 13  13 14  14 15  15 16  16 17  17 18  18 19  19 20  20 21  21 22  22 23  23 24  24 25  25 26  26 27  27 28  28 29  29 30  30 31  31 32  32 33  33 34  34 35  35 36  36 37  37 38  38 39  39 40  40 41  41 42  42 43  43 44  44 45  45 46  46 47  47 48  48 49  49 50  50 51  51 52  52 53  53 54  54 55  55 56  56 57  57 58  58 59  59 60  60 61  61 62  62 63  63 64  64 65  65 66  66 67  67 68  68 69  69 70  70 71  71 72  72 73  73 74  74 75  75 76  76 77  77 78  78 79  79 80  80 81  81 82  82 83  83 84  84 85  85 86  86 87  87 88  88 89  89 90  90 91  91 92  92 93  93 94  94 95  95 96  96 97  97 98  98 99  99 100  </DataArray>
<DataArray  type="UInt32"  Name="offsets"  format="ascii">2 4 6 8 10 12 14 16 18 20 22 24 26 28 30 32 34 36 38 40 42 44 46 48 50 52 54 56 58 60 62 64 66 68 70 72 74 76 78 80 82 84 86 88 90 92 94 96 98 100 102 104 106 108 110 112 114 116 118 120 122 124 126 128 130 132 134 136 138 140 142 144 146 148 150 152 154 156 158 160 162 164 166 168 170 172 174 176 178 180 182 184 186 188 190 192 194 196 198 200 </DataArray>
<DataArray  type="UInt8"  Name="types"  format="ascii">3 3 3 3 3 3 3 3 3 3 3 3 3 3 3 3 3 3 3 3 3 3 3 3 3 3 3 3 3 3 3 3 3 3 3 3 3 3 3 3 3 3 3 3 3 3 3 3 3 3 3 3 3 3 3 3 3 3 3 3 3 3 3 3 3 3 3 3 3 3 3 3 3 3 3 3 3 3 3 3 3 3 3 3 3 3 3 3 3 3 3 3 3 3 3 3 3 3 3 3 </DataArray>
</Cells>
<PointData  Scalars="f_13"> 
<DataArray  type="Float64"  Name="f_13"  format="ascii">9.8721401147436620e+02  9.9034118039038435e+02  9.9311642647752751e+02  9.9556936768036064e+02  9.9772767850936202e+02  9.9961722277483545e+02  1.0012621673465060e+03  1.0026850838756062e+03  1.0039070426785190e+03  1.0049477012432212e+03  1.0058253887512660e+03  1.0065571873780816e+03  1.0071590107842446e+03  1.0076456800328754e+03  1.0080309970924603e+03  1.0083278160645090e+03  1.0085481122830149e+03  1.0087030494507758e+03  1.0088030449968455e+03  1.0088578338551578e+03  1.0088765308749582e+03  1.0088676920791047e+03  1.0088393749873234e+03  1.0087991982193204e+03  1.0087544005884298e+03  1.0087118998913203e+03  1.0086783515940675e+03  1.0086602076103045e+03  1.0086637753636533e+03  1.0086952773244969e+03  1.0087609112105026e+03  1.0088669110411695e+03  1.0090196092389569e+03  1.0092254999731248e+03  1.0094913039470821e+03  1.0098240348356156e+03  1.0102310675846136e+03  1.0107202087926330e+03  1.0112997694006614e+03  1.0119786399235397e+03  1.0127663684635785e+03  1.0136732417537992e+03  1.0147103694848772e+03  1.0158897721761855e+03  1.0172244728573331e+03  1.0187285928322573e+03  1.0204174518033358e+03  1.0223076726382097e+03  1.0244172910672075e+03  1.0267658706045893e+03  1.0293746229925366e+03  1.0322665344731524e+03  1.0354664982010231e+03  1.0390014531175232e+03  1.0429005296184021e+03  1.0471952023587824e+03  1.0519194505550463e+03  1.0571099261617692e+03  1.0628061303245438e+03  1.0690505985369209e+03  1.0758890949625638e+03  1.0833708164228822e+03  1.0915486065968173e+03  1.1004791810340341e+03  1.1102233636465828e+03  1.1208463354182397e+03  1.1324178961563832e+03  1.1450127402096566e+03  1.1587107471871404e+03  1.1735972888426741e+03  1.1897635534327901e+03  1.2073068890199881e+03  1.2263311673763419e+03  1.2469471703473760e+03  1.2692730007644175e+03  1.2934345202469942e+03  1.3195658165169932e+03  1.3478097031549646e+03  1.3783182550678059e+03  1.4112533833076279e+03  1.4467874532853316e+03  1.4851039508604783e+03  1.5263982012623808e+03  1.5708781463066136e+03  1.6187651859167327e+03  1.6702950905431237e+03  1.7257189916898649e+03  1.7853044584171953e+03  1.8493366683840616e+03  1.9181196827376175e+03  1.9919778349553246e+03  2.0712572446202817e+03  2.1563274680962127e+03  2.2475832992226842e+03  2.3454467345661888e+03  2.4503691195835954e+03  2.5628334945027036e+03  2.6833571621330420e+03  2.8124945046795860e+03  2.9508400836576661e+03  3.0990320672259354e+03  </DataArray> 
</PointData> 
</Piece>
</UnstructuredGrid>
</VTKFile>