<?xml version="1.0"?>
<VTKFile type="UnstructuredGrid"  version="0.1"  >
<UnstructuredGrid>
<Piece  NumberOfPoints="101" NumberOfCells="100">
<Points>
<DataArray  type="Float64"  NumberOfComponents="3"  format="ascii">0 0 0  0.01 0 0  0.02 0 0  0.03 0 0  0.04 0 0  0.05 0 0  0.06 0 0  0.07000000000000001 0 0  0.08 0 0  0.09 0 0  0.1 0 0  0.11 0 0  0.12 0 0  0.13 0 0  0.14 0 0  0.15 0 0  0.16 0 0  0.17 0 0  0.18 0 0  0.19 0 0  0.2 0 0  0.21 0 0  0.22 0 0  0.23 0 0  0.24 0 0  0.25 0 0  0.26 0 0  0.27 0 0  0.28 0 0  0.29 0 0  0.3 0 0  0.31 0 0  0.32 0 0  0.33 0 0  0.34 0 0  0.35 0 0  0.36 0 0  0.37 0 0  0.38 0 0  0.39 0 0  0.4 0 0  0.41 0 0  0.42 0 0  0.43 0 0  0.44 0 0  0.45 0 0  0.46 0 0  0.47 0 0  0.48 0 0  0.49 0 0  0.5 0 0  0.51 0 0  0.52 0 0  0.53 0 0  0.54 0 0  0.55 0 0  0.5600000000000001 0 0  0.57 0 0  0.58 0 0  0.59 0 0  0.6 0 0  0.61 0 0  0.62 0 0  0.63 0 0  0.64 0 0  0.65 0 0  0.66 0 0  0.67 0 0  0.68 0 0  0.6899999999999999 0 0  0.7 0 0  0.71 0 0  0.72 0 0  0.73 0 0  0.74 0 0  0.75 0 0  0.76 0 0  0.77 0 0  0.78 0 0  0.79 0 0  0.8 0 0  0.8100000000000001 0 0  0.82 0 0  0.83 0 0  0.84 0 0  0.85 0 0  0.86 0 0  0.87 0 0  0.88 0 0  0.89 0 0  0.9 0 0  0.91 0 0  0.92 0 0  0.93 0 0  0.9399999999999999 0 0  0.95 0 0  0.96 0 0  0.97 0 0  0.98 0 0  0.99 0 0  1 0 0  </DataArray>
</Points>
<Cells>
<DataArray  type="UInt32"  Name="connectivity"  format="ascii">0 1  1 2  2 3  3 4  4 5  5 6  6 7  7 8  8 9  9 10  10 11  11 12  12 13  13 14  14 15  15 16  16 17  17 18  18 19  19 20  20 21  21 22  22 23  23 24  24 25  25 26  26 27  27 28  28 29  29 30  30 31  31 32  32 33  33 34  34 35  35 36  36 37  37 38  38 39  39 40  40 41  41 42  42 43  43 44  44 45  45 46  46 47  47 48  48 49  49 50  50 51  51 52  52 53  53 54  54 55  55 56  56 57  57 58  58 59  59 60  60 61  61 62  62 63  63 64  64 65  65 66  66 67  67 68  68 69  69 70  70 71  71 72  72 73  73 74  74 75  75 76  76 77  77 78  78 79  79 80  80 81  81 82  82 83  83 84  84 85  85 86  86 87  87 88  88 89  89 90  90 91  91 92  92 93  93 94  94 95  95 96  96 97  97 98  98 99  99 100  </DataArray>
<DataArray  type="UInt32"  Name="offsets"  format="ascii">2 4 6 8 10 12 14 16 18 20 22 24 26 28 30 32 34 36 38 40 42 44 46 48 50 52 54 56 58 60 62 64 66 68 70 72 74 76 78 80 82 84 86 88 90 92 94 96 98 100 102 104 106 108 110 112 114 116 118 120 122 124 126 128 130 132 134 136 138 140 142 144 146 148 150 152 154 156 158 160 162 164 166 168 170 172 174 176 178 180 182 184 186 188 190 192 194 196 198 200 </DataArray>
<DataArray  type="UInt8"  Name="types"  format="ascii">3 3 3 3 3 3 3 3 3 3 3 3 3 3 3 3 3 3 3 3 3 3 3 3 3 3 3 3 3 3 3 3 3 3 3 3 3 3 3 3 3 3 3 3 3 3 3 3 3 3 3 3 3 3 3 3 3 3 3 3 3 3 3 3 3 3 3 3 3 3 3 3 3 3 3 3 3 3 3 3 3 3 3 3 3 3 3 3 3 3 3 3 3 3 3 3 3 3 3 3 </DataArray>
</Cells>
<PointData  Scalars="f_13"> 
<DataArray  type="Float64"  Name="f_13"  format="ascii">9.5862644016723982e+02  9.6214485368133023e+02  9.6549414927365706e+02  9.6870594326388186e+02  9.7180794947018512e+02  9.7482458262419357e+02  9.7777753527741095e+02  9.8068630067130175e+02  9.8356863159271302e+02  9.8644093532080626e+02  9.8931861007529972e+02  9.9221633071132078e+02  9.9514829197838424e+02  9.9812841725489875e+02  1.0011705397833254e+03  1.0042885623696172e+03  1.0074966004508699e+03  1.0108091124713487e+03  1.0142410206812116e+03  1.0178078247948320e+03  1.0215257104093514e+03  1.0254116536726021e+03  1.0294835233830181e+03  1.0337601814824479e+03  1.0382615827473862e+03  1.0430088743788885e+03  1.0480244961229439e+03  1.0533322815105689e+03  1.0589575607820245e+03  1.0649272660460485e+03  1.0712700392183131e+03  1.0780163432802947e+03  1.0851985773983029e+03  1.0928511964413190e+03  1.1010108354348868e+03  1.1097164394863837e+03  1.1190093997146498e+03  1.1289336957144501e+03  1.1395360450839989e+03  1.1508660605422151e+03  1.1629764151620241e+03  1.1759230162473366e+03  1.1897651883848457e+03  1.2045658662079304e+03  1.2203917974192730e+03  1.2373137566317398e+03  1.2554067706041722e+03  1.2747503554705122e+03  1.2954287665877509e+03  1.3175312616611322e+03  1.3411523778446328e+03  1.3663922235616949e+03  1.3933567858464478e+03  1.4221582540701288e+03  1.4529153609922269e+03  1.4857537421621641e+03  1.5208063147964006e+03  1.5582136773690431e+03  1.5981245312828596e+03  1.6406961261335082e+03  1.6860947302444467e+03  1.7344961283349157e+03  1.7860861483902452e+03  1.8410612200340881e+03  1.8996289669575319e+03  1.9620088362418542e+03  2.0284327677213125e+03  2.0991459068710806e+03  2.1744073650745245e+03  2.2544910315247748e+03  2.3396864414495440e+03  2.4302997058173928e+03  2.5266545081911613e+03  2.6290931749442561e+03  2.7379778256546956e+03  2.8536916111499381e+03  2.9766400474071279e+03  3.1072524543393879e+03  3.2459835094487630e+03  3.3933149274414409e+03  3.5497572782366929e+03  3.7158519574320198e+03  3.8921733253102689e+03  4.0793310330143645e+03  4.2779725577269855e+03  4.4887859727655259e+03  4.7125029836603680e+03  4.9499022677807807e+03  5.2018131631792412e+03  5.4691197623073122e+03  5.7527654783299231e+03  6.0537581660225997e+03  6.3731758955309742e+03  6.7121734950362470e+03  7.0719899963427706e+03  7.4539571332218911e+03  7.8595090519487358e+03  8.2901933902321816e+03  8.7476838542335900e+03  9.2337943575971221e+03  9.7504946573042653e+03  </DataArray> 
</PointData> 
</Piece>
</UnstructuredGrid>
</VTKFile>