<?xml version="1.0"?>
<VTKFile type="UnstructuredGrid"  version="0.1"  >
<UnstructuredGrid>
<Piece  NumberOfPoints="101" NumberOfCells="100">
<Points>
<DataArray  type="Float64"  NumberOfComponents="3"  format="ascii">0 0 0  0.01 0 0  0.02 0 0  0.03 0 0  0.04 0 0  0.05 0 0  0.06 0 0  0.07000000000000001 0 0  0.08 0 0  0.09 0 0  0.1 0 0  0.11 0 0  0.12 0 0  0.13 0 0  0.14 0 0  0.15 0 0  0.16 0 0  0.17 0 0  0.18 0 0  0.19 0 0  0.2 0 0  0.21 0 0  0.22 0 0  0.23 0 0  0.24 0 0  0.25 0 0  0.26 0 0  0.27 0 0  0.28 0 0  0.29 0 0  0.3 0 0  0.31 0 0  0.32 0 0  0.33 0 0  0.34 0 0  0.35 0 0  0.36 0 0  0.37 0 0  0.38 0 0  0.39 0 0  0.4 0 0  0.41 0 0  0.42 0 0  0.43 0 0  0.44 0 0  0.45 0 0  0.46 0 0  0.47 0 0  0.48 0 0  0.49 0 0  0.5 0 0  0.51 0 0  0.52 0 0  0.53 0 0  0.54 0 0  0.55 0 0  0.5600000000000001 0 0  0.57 0 0  0.58 0 0  0.59 0 0  0.6 0 0  0.61 0 0  0.62 0 0  0.63 0 0  0.64 0 0  0.65 0 0  0.66 0 0  0.67 0 0  0.68 0 0  0.6899999999999999 0 0  0.7 0 0  0.71 0 0  0.72 0 0  0.73 0 0  0.74 0 0  0.75 0 0  0.76 0 0  0.77 0 0  0.78 0 0  0.79 0 0  0.8 0 0  0.8100000000000001 0 0  0.82 0 0  0.83 0 0  0.84 0 0  0.85 0 0  0.86 0 0  0.87 0 0  0.88 0 0  0.89 0 0  0.9 0 0  0.91 0 0  0.92 0 0  0.93 0 0  0.9399999999999999 0 0  0.95 0 0  0.96 0 0  0.97 0 0  0.98 0 0  0.99 0 0  1 0 0  </DataArray>
</Points>
<Cells>
<DataArray  type="UInt32"  Name="connectivity"  format="ascii">0 1  1 2  2 3  3 4  4 5  5 6  6 7  7 8  8 9  9 10  10 11  11 12  12 13  13 14  14 15  15 16  16 17  17 18  18 19  19 20  20 21  21 22  22 23  23 24  24 25  25 26  26 27  27 28  28 29  29 30  30 31  31 32  32 33  33 34  34 35  35 36  36 37  37 38  38 39  39 40  40 41  41 42  42 43  43 44  44 45  45 46  46 47  47 48  48 49  49 50  50 51  51 52  52 53  53 54  54 55  55 56  56 57  57 58  58 59  59 60  60 61  61 62  62 63  63 64  64 65  65 66  66 67  67 68  68 69  69 70  70 71  71 72  72 73  73 74  74 75  75 76  76 77  77 78  78 79  79 80  80 81  81 82  82 83  83 84  84 85  85 86  86 87  87 88  88 89  89 90  90 91  91 92  92 93  93 94  94 95  95 96  96 97  97 98  98 99  99 100  </DataArray>
<DataArray  type="UInt32"  Name="offsets"  format="ascii">2 4 6 8 10 12 14 16 18 20 22 24 26 28 30 32 34 36 38 40 42 44 46 48 50 52 54 56 58 60 62 64 66 68 70 72 74 76 78 80 82 84 86 88 90 92 94 96 98 100 102 104 106 108 110 112 114 116 118 120 122 124 126 128 130 132 134 136 138 140 142 144 146 148 150 152 154 156 158 160 162 164 166 168 170 172 174 176 178 180 182 184 186 188 190 192 194 196 198 200 </DataArray>
<DataArray  type="UInt8"  Name="types"  format="ascii">3 3 3 3 3 3 3 3 3 3 3 3 3 3 3 3 3 3 3 3 3 3 3 3 3 3 3 3 3 3 3 3 3 3 3 3 3 3 3 3 3 3 3 3 3 3 3 3 3 3 3 3 3 3 3 3 3 3 3 3 3 3 3 3 3 3 3 3 3 3 3 3 3 3 3 3 3 3 3 3 3 3 3 3 3 3 3 3 3 3 3 3 3 3 3 3 3 3 3 3 </DataArray>
</Cells>
<PointData  Scalars="f_13"> 
<DataArray  type="Float64"  Name="f_13"  format="ascii">1.0501836751124215e+03  1.0663671838050411e+03  1.0831398645618040e+03  1.1005742127902915e+03  1.1187403207762047e+03  1.1377066613822979e+03  1.1575409362513026e+03  1.1783109362638977e+03  1.2000853822365652e+03  1.2229347276624103e+03  1.2469319146732960e+03  1.2721530806991746e+03  1.2986782174653401e+03  1.3265917866556961e+03  1.3559832982353755e+03  1.3869478583868176e+03  1.4195866944924278e+03  1.4540076647513065e+03  1.4903257599587937e+03  1.5286636047854240e+03  1.5691519656236787e+03  1.6119302717679566e+03  1.6571471563853383e+03  1.7049610234433944e+03  1.7555406465017306e+03  1.8090658050567142e+03  1.8657279639609601e+03  1.9257310013250381e+03  1.9892919902508900e+03  2.0566420397454071e+03  2.1280272002182260e+03  2.2037094390788484e+03  2.2839676921128903e+03  2.3690989965333229e+03  2.4594197118674315e+03  2.5552668351510579e+03  2.6569994172555030e+03  2.7650000875661653e+03  2.8796766946623306e+03  3.0014640711111078e+03  3.1308259309818886e+03  3.2682569092071717e+03  3.4142847524573153e+03  3.5694726717566341e+03  3.7344218676420023e+03  3.9097742392480736e+03  4.0962152892906597e+03  4.2944772375066514e+03  4.5053423556899361e+03  4.7296465380328755e+03  4.9682831210370150e+03  5.2222069677899817e+03  5.4924388319140980e+03  5.7800700169729898e+03  6.0862673475740430e+03  6.4122784688279144e+03  6.7594374912251005e+03  7.1291709983718829e+03  7.5230044354067413e+03  7.9425688963129842e+03  8.3896083287820366e+03  8.8659871758017052e+03  9.3736984737953553e+03  9.9148724279856579e+03  1.0491785486782512e+04  1.1106869938501719e+04  1.1762724055735509e+04  1.2462122815372328e+04  1.3208029225787377e+04  1.4003606297318667e+04  1.4852229698067642e+04  1.5757501144624375e+04  1.6723262586869987e+04  1.7753611257959201e+04  1.8852915675397133e+04  2.0025832697316640e+04  2.1277325760215674e+04  2.2612684451166879e+04  2.4037545599558205e+04  2.5557916111507100e+04  2.7180197814994350e+04  2.8911214636289962e+04  3.0758242489192871e+04  3.2729042328737818e+04  3.4831896901000859e+04  3.7075651810956748e+04  3.9469761631220586e+04  4.2024341885728580e+04  4.4750227863100990e+04  4.7659041342733974e+04  5.0763266449289644e+04  5.4076335982789045e+04  5.7612729693468056e+04  6.1388086069943922e+04  6.5419329266534871e+04  6.9724812781750778e+04  7.4324481372221751e+04  7.9240052381884903e+04  8.4495217093463856e+04  9.0115861734852646e+04  9.6130306203647546e+04  </DataArray> 
</PointData> 
</Piece>
</UnstructuredGrid>
</VTKFile>