<?xml version="1.0"?>
<VTKFile type="UnstructuredGrid"  version="0.1"  >
<UnstructuredGrid>
<Piece  NumberOfPoints="101" NumberOfCells="100">
<Points>
<DataArray  type="Float64"  NumberOfComponents="3"  format="ascii">0 0 0  0.01 0 0  0.02 0 0  0.03 0 0  0.04 0 0  0.05 0 0  0.06 0 0  0.07000000000000001 0 0  0.08 0 0  0.09 0 0  0.1 0 0  0.11 0 0  0.12 0 0  0.13 0 0  0.14 0 0  0.15 0 0  0.16 0 0  0.17 0 0  0.18 0 0  0.19 0 0  0.2 0 0  0.21 0 0  0.22 0 0  0.23 0 0  0.24 0 0  0.25 0 0  0.26 0 0  0.27 0 0  0.28 0 0  0.29 0 0  0.3 0 0  0.31 0 0  0.32 0 0  0.33 0 0  0.34 0 0  0.35 0 0  0.36 0 0  0.37 0 0  0.38 0 0  0.39 0 0  0.4 0 0  0.41 0 0  0.42 0 0  0.43 0 0  0.44 0 0  0.45 0 0  0.46 0 0  0.47 0 0  0.48 0 0  0.49 0 0  0.5 0 0  0.51 0 0  0.52 0 0  0.53 0 0  0.54 0 0  0.55 0 0  0.5600000000000001 0 0  0.57 0 0  0.58 0 0  0.59 0 0  0.6 0 0  0.61 0 0  0.62 0 0  0.63 0 0  0.64 0 0  0.65 0 0  0.66 0 0  0.67 0 0  0.68 0 0  0.6899999999999999 0 0  0.7 0 0  0.71 0 0  0.72 0 0  0.73 0 0  0.74 0 0  0.75 0 0  0.76 0 0  0.77 0 0  0.78 0 0  0.79 0 0  0.8 0 0  0.8100000000000001 0 0  0.82 0 0  0.83 0 0  0.84 0 0  0.85 0 0  0.86 0 0  0.87 0 0  0.88 0 0  0.89 0 0  0.9 0 0  0.91 0 0  0.92 0 0  0.93 0 0  0.9399999999999999 0 0  0.95 0 0  0.96 0 0  0.97 0 0  0.98 0 0  0.99 0 0  1 0 0  </DataArray>
</Points>
<Cells>
<DataArray  type="UInt32"  Name="connectivity"  format="ascii">0 1  1 2  2 3  3 4  4 5  5 6  6 7  7 8  8 9  9 10  10 11  11 12  12 13  13 14  14 15  15 16  16 17  17 18  18 19  19 20  20 21  21 22  22 23  23 24  24 25  25 26  26 27  27 28  28 29  29 30  30 31  31 32  32 33  33 34  34 35  35 36  36 37  37 38  38 39  39 40  40 41  41 42  42 43  43 44  44 45  45 46  46 47  47 48  48 49  49 50  50 51  51 52  52 53  53 54  54 55  55 56  56 57  57 58  58 59  59 60  60 61  61 62  62 63  63 64  64 65  65 66  66 67  67 68  68 69  69 70  70 71  71 72  72 73  73 74  74 75  75 76  76 77  77 78  78 79  79 80  80 81  81 82  82 83  83 84  84 85  85 86  86 87  87 88  88 89  89 90  90 91  91 92  92 93  93 94  94 95  95 96  96 97  97 98  98 99  99 100  </DataArray>
<DataArray  type="UInt32"  Name="offsets"  format="ascii">2 4 6 8 10 12 14 16 18 20 22 24 26 28 30 32 34 36 38 40 42 44 46 48 50 52 54 56 58 60 62 64 66 68 70 72 74 76 78 80 82 84 86 88 90 92 94 96 98 100 102 104 106 108 110 112 114 116 118 120 122 124 126 128 130 132 134 136 138 140 142 144 146 148 150 152 154 156 158 160 162 164 166 168 170 172 174 176 178 180 182 184 186 188 190 192 194 196 198 200 </DataArray>
<DataArray  type="UInt8"  Name="types"  format="ascii">3 3 3 3 3 3 3 3 3 3 3 3 3 3 3 3 3 3 3 3 3 3 3 3 3 3 3 3 3 3 3 3 3 3 3 3 3 3 3 3 3 3 3 3 3 3 3 3 3 3 3 3 3 3 3 3 3 3 3 3 3 3 3 3 3 3 3 3 3 3 3 3 3 3 3 3 3 3 3 3 3 3 3 3 3 3 3 3 3 3 3 3 3 3 3 3 3 3 3 3 </DataArray>
</Cells>
<PointData  Scalars="f_13"> 
<DataArray  type="Float64"  Name="f_13"  format="ascii">1.1383729365121862e+03  1.1511485523163763e+03  1.1656591159071006e+03  1.1818550859584511e+03  1.1997021854572833e+03  1.2191808148070904e+03  1.2402854640987928e+03  1.2630241398389312e+03  1.2874178227595930e+03  1.3134999721160780e+03  1.3413160894086236e+03  1.3709233515615429e+03  1.4023903207448489e+03  1.4357967354969826e+03  1.4712333857259471e+03  1.5088020725631554e+03  1.5486156528994616e+03  1.5907981676972386e+03  1.6354850527844840e+03  1.6828234307326081e+03  1.7329724825381377e+03  1.7861038981159302e+03  1.8424024050215469e+03  1.9020663753153362e+03  1.9653085110304601e+03  2.0323566092885153e+03  2.1034544087024747e+03  2.1788625193053913e+03  2.2588594388366264e+03  2.3437426588004910e+03  2.4338298642826571e+03  2.5294602320668969e+03  2.6309958321391732e+03  2.7388231381992564e+03  2.8533546533236754e+03  2.9750306574400402e+03  3.1043210837835768e+03  3.2417275320140557e+03  3.3877854261768334e+03  3.5430663261967757e+03  3.7081804020994218e+03  3.8837790806604316e+03  4.0705578746922929e+03  4.2692594056860944e+03  4.4806766310352023e+03  4.7056562875753534e+03  4.9451025636802424e+03  5.1999810126502389e+03  5.4713227206209949e+03  5.7602287426936609e+03  6.0678748214433999e+03  6.3955164023901334e+03  6.7444939614054174e+03  7.1162386593696310e+03  7.5122783396686409e+03  7.9342438843089267e+03  8.3838759445096857e+03  8.8630320615681649e+03  9.3736941935506184e+03  9.9179766628862053e+03  1.0498134539173721e+04  1.1116572470374327e+04  1.1775853973964771e+04  1.2478711197450199e+04  1.3228055154745427e+04  1.4026986441161664e+04  1.4878806424883032e+04  1.5787028906647847e+04  1.6755392231585949e+04  1.7787871827482613e+04  1.8888693131769611e+04  2.0062344854860541e+04  2.1313592509574890e+04  2.2647492114803634e+04  2.4069403955685404e+04  2.5585006251772560e+04  2.7200308548337205e+04  2.8921664603463920e+04  3.0755784494298976e+04  3.2709745609252408e+04  3.4791002128695269e+04  3.7007392524588045e+04  3.9367144529654302e+04  4.1878876939737500e+04  4.4551597519969822e+04  4.7394696188180911e+04  5.0417932550307734e+04  5.3631416766227478e+04  5.7045582635438681e+04  6.0671151716717948e+04  6.4519087242001733e+04  6.8600536561232540e+04  7.2926760871532650e+04  7.7509051050581227e+04  8.2358628538743767e+04  8.7486530401703742e+04  9.2903477951724315e+04  9.8619728594378277e+04  1.0464491085967382e+05  1.1098784279841714e+05  1.1765633395025793e+05  </DataArray> 
</PointData> 
</Piece>
</UnstructuredGrid>
</VTKFile>