<?xml version="1.0"?>
<VTKFile type="UnstructuredGrid"  version="0.1"  >
<UnstructuredGrid>
<Piece  NumberOfPoints="101" NumberOfCells="100">
<Points>
<DataArray  type="Float64"  NumberOfComponents="3"  format="ascii">0 0 0  0.01 0 0  0.02 0 0  0.03 0 0  0.04 0 0  0.05 0 0  0.06 0 0  0.07000000000000001 0 0  0.08 0 0  0.09 0 0  0.1 0 0  0.11 0 0  0.12 0 0  0.13 0 0  0.14 0 0  0.15 0 0  0.16 0 0  0.17 0 0  0.18 0 0  0.19 0 0  0.2 0 0  0.21 0 0  0.22 0 0  0.23 0 0  0.24 0 0  0.25 0 0  0.26 0 0  0.27 0 0  0.28 0 0  0.29 0 0  0.3 0 0  0.31 0 0  0.32 0 0  0.33 0 0  0.34 0 0  0.35 0 0  0.36 0 0  0.37 0 0  0.38 0 0  0.39 0 0  0.4 0 0  0.41 0 0  0.42 0 0  0.43 0 0  0.44 0 0  0.45 0 0  0.46 0 0  0.47 0 0  0.48 0 0  0.49 0 0  0.5 0 0  0.51 0 0  0.52 0 0  0.53 0 0  0.54 0 0  0.55 0 0  0.5600000000000001 0 0  0.57 0 0  0.58 0 0  0.59 0 0  0.6 0 0  0.61 0 0  0.62 0 0  0.63 0 0  0.64 0 0  0.65 0 0  0.66 0 0  0.67 0 0  0.68 0 0  0.6899999999999999 0 0  0.7 0 0  0.71 0 0  0.72 0 0  0.73 0 0  0.74 0 0  0.75 0 0  0.76 0 0  0.77 0 0  0.78 0 0  0.79 0 0  0.8 0 0  0.8100000000000001 0 0  0.82 0 0  0.83 0 0  0.84 0 0  0.85 0 0  0.86 0 0  0.87 0 0  0.88 0 0  0.89 0 0  0.9 0 0  0.91 0 0  0.92 0 0  0.93 0 0  0.9399999999999999 0 0  0.95 0 0  0.96 0 0  0.97 0 0  0.98 0 0  0.99 0 0  1 0 0  </DataArray>
</Points>
<Cells>
<DataArray  type="UInt32"  Name="connectivity"  format="ascii">0 1  1 2  2 3  3 4  4 5  5 6  6 7  7 8  8 9  9 10  10 11  11 12  12 13  13 14  14 15  15 16  16 17  17 18  18 19  19 20  20 21  21 22  22 23  23 24  24 25  25 26  26 27  27 28  28 29  29 30  30 31  31 32  32 33  33 34  34 35  35 36  36 37  37 38  38 39  39 40  40 41  41 42  42 43  43 44  44 45  45 46  46 47  47 48  48 49  49 50  50 51  51 52  52 53  53 54  54 55  55 56  56 57  57 58  58 59  59 60  60 61  61 62  62 63  63 64  64 65  65 66  66 67  67 68  68 69  69 70  70 71  71 72  72 73  73 74  74 75  75 76  76 77  77 78  78 79  79 80  80 81  81 82  82 83  83 84  84 85  85 86  86 87  87 88  88 89  89 90  90 91  91 92  92 93  93 94  94 95  95 96  96 97  97 98  98 99  99 100  </DataArray>
<DataArray  type="UInt32"  Name="offsets"  format="ascii">2 4 6 8 10 12 14 16 18 20 22 24 26 28 30 32 34 36 38 40 42 44 46 48 50 52 54 56 58 60 62 64 66 68 70 72 74 76 78 80 82 84 86 88 90 92 94 96 98 100 102 104 106 108 110 112 114 116 118 120 122 124 126 128 130 132 134 136 138 140 142 144 146 148 150 152 154 156 158 160 162 164 166 168 170 172 174 176 178 180 182 184 186 188 190 192 194 196 198 200 </DataArray>
<DataArray  type="UInt8"  Name="types"  format="ascii">3 3 3 3 3 3 3 3 3 3 3 3 3 3 3 3 3 3 3 3 3 3 3 3 3 3 3 3 3 3 3 3 3 3 3 3 3 3 3 3 3 3 3 3 3 3 3 3 3 3 3 3 3 3 3 3 3 3 3 3 3 3 3 3 3 3 3 3 3 3 3 3 3 3 3 3 3 3 3 3 3 3 3 3 3 3 3 3 3 3 3 3 3 3 3 3 3 3 3 3 </DataArray>
</Cells>
<PointData  Scalars="f_13"> 
<DataArray  type="Float64"  Name="f_13"  format="ascii">1.3806059323729037e+03  1.3954259094716770e+03  1.4126434833688606e+03  1.4323022467267040e+03  1.4544557628875618e+03  1.4791666211807039e+03  1.5065060779457735e+03  1.5365541125231869e+03  1.5693997706533282e+03  1.6051417022164303e+03  1.6438888272701945e+03  1.6857610851405705e+03  1.7308902370441901e+03  1.7794207043897122e+03  1.8315104333944059e+03  1.8873317826910854e+03  1.9470724347840310e+03  2.0109363350167655e+03  2.0791446635137568e+03  2.1519368466413971e+03  2.2295716151208298e+03  2.3123281161803611e+03  2.4005070871785538e+03  2.4944320980466732e+03  2.5944508697509646e+03  2.7009366758016317e+03  2.8142898336620965e+03  2.9349392927543604e+03  3.0633443256215301e+03  3.1999963286990314e+03  3.3454207390602592e+03  3.5001790734363822e+03  3.6648710957583153e+03  3.8401371194248422e+03  4.0266604504574598e+03  4.2251699776521555e+03  4.4364429157733421e+03  4.6613077077475928e+03  4.9006470916967983e+03  5.1554013384935106e+03  5.4265716653174895e+03  5.7152238304330967e+03  6.0224919140835527e+03  6.3495822900010307e+03  6.6977777915519791e+03  7.0684420759650284e+03  7.4630241894147784e+03  7.8830633349482487e+03  8.3301938443317522e+03  8.8061503538537927e+03  9.3127731829342938e+03  9.8520139130518110e+03  1.0425941162999039e+04  1.1036746554804526e+04  1.1686750862807854e+04  1.2378410336341585e+04  1.3114323184253954e+04  1.3897236207102740e+04  1.4730051560269865e+04  1.5615833628500259e+04  1.6557815989479703e+04  1.7559408441065130e+04  1.8624204063713732e+04  1.9755986286585277e+04  2.0958735922798354e+04  2.2236638136513560e+04  2.3594089302034550e+04  2.5035703713136685e+04  2.6566320099574219e+04  2.8191007907451760e+04  2.9915073301207183e+04  3.1744064847739755e+04  3.3683778848204958e+04  3.5740264290738181e+04  3.7919827408500227e+04  4.0229035842668083e+04  4.2674722430100141e+04  4.5263988661193929e+04  4.8004207885725205e+04  5.0903028383919962e+04  5.3968376467178387e+04  5.7208459827892671e+04  6.0631771420236088e+04  6.4247094222295185e+04  6.8063507301770005e+04  7.2090393678059700e+04  7.6337450535577809e+04  8.0814702385648110e+04  8.5532517781455870e+04  9.0501630139958012e+04  9.5733163085713080e+04  1.0123866046294634e+05  1.0703012070914413e+05  1.1312003457500144e+05  1.1952142412083369e+05  1.2624787940470547e+05  1.3331358716240956e+05  1.4073334289555150e+05  1.4852253393411721e+05  1.5669707600107873e+05  1.6527327933866839e+05  </DataArray> 
</PointData> 
</Piece>
</UnstructuredGrid>
</VTKFile>