<?xml version="1.0"?>
<VTKFile type="UnstructuredGrid"  version="0.1"  >
<UnstructuredGrid>
<Piece  NumberOfPoints="101" NumberOfCells="100">
<Points>
<DataArray  type="Float64"  NumberOfComponents="3"  format="ascii">0 0 0  0.01 0 0  0.02 0 0  0.03 0 0  0.04 0 0  0.05 0 0  0.06 0 0  0.07000000000000001 0 0  0.08 0 0  0.09 0 0  0.1 0 0  0.11 0 0  0.12 0 0  0.13 0 0  0.14 0 0  0.15 0 0  0.16 0 0  0.17 0 0  0.18 0 0  0.19 0 0  0.2 0 0  0.21 0 0  0.22 0 0  0.23 0 0  0.24 0 0  0.25 0 0  0.26 0 0  0.27 0 0  0.28 0 0  0.29 0 0  0.3 0 0  0.31 0 0  0.32 0 0  0.33 0 0  0.34 0 0  0.35 0 0  0.36 0 0  0.37 0 0  0.38 0 0  0.39 0 0  0.4 0 0  0.41 0 0  0.42 0 0  0.43 0 0  0.44 0 0  0.45 0 0  0.46 0 0  0.47 0 0  0.48 0 0  0.49 0 0  0.5 0 0  0.51 0 0  0.52 0 0  0.53 0 0  0.54 0 0  0.55 0 0  0.5600000000000001 0 0  0.57 0 0  0.58 0 0  0.59 0 0  0.6 0 0  0.61 0 0  0.62 0 0  0.63 0 0  0.64 0 0  0.65 0 0  0.66 0 0  0.67 0 0  0.68 0 0  0.6899999999999999 0 0  0.7 0 0  0.71 0 0  0.72 0 0  0.73 0 0  0.74 0 0  0.75 0 0  0.76 0 0  0.77 0 0  0.78 0 0  0.79 0 0  0.8 0 0  0.8100000000000001 0 0  0.82 0 0  0.83 0 0  0.84 0 0  0.85 0 0  0.86 0 0  0.87 0 0  0.88 0 0  0.89 0 0  0.9 0 0  0.91 0 0  0.92 0 0  0.93 0 0  0.9399999999999999 0 0  0.95 0 0  0.96 0 0  0.97 0 0  0.98 0 0  0.99 0 0  1 0 0  </DataArray>
</Points>
<Cells>
<DataArray  type="UInt32"  Name="connectivity"  format="ascii">0 1  1 2  2 3  3 4  4 5  5 6  6 7  7 8  8 9  9 10  10 11  11 12  12 13  13 14  14 15  15 16  16 17  17 18  18 19  19 20  20 21  21 22  22 23  23 24  24 25  25 26  26 27  27 28  28 29  29 30  30 31  31 32  32 33  33 34  34 35  35 36  36 37  37 38  38 39  39 40  40 41  41 42  42 43  43 44  44 45  45 46  46 47  47 48  48 49  49 50  50 51  51 52  52 53  53 54  54 55  55 56  56 57  57 58  58 59  59 60  60 61  61 62  62 63  63 64  64 65  65 66  66 67  67 68  68 69  69 70  70 71  71 72  72 73  73 74  74 75  75 76  76 77  77 78  78 79  79 80  80 81  81 82  82 83  83 84  84 85  85 86  86 87  87 88  88 89  89 90  90 91  91 92  92 93  93 94  94 95  95 96  96 97  97 98  98 99  99 100  </DataArray>
<DataArray  type="UInt32"  Name="offsets"  format="ascii">2 4 6 8 10 12 14 16 18 20 22 24 26 28 30 32 34 36 38 40 42 44 46 48 50 52 54 56 58 60 62 64 66 68 70 72 74 76 78 80 82 84 86 88 90 92 94 96 98 100 102 104 106 108 110 112 114 116 118 120 122 124 126 128 130 132 134 136 138 140 142 144 146 148 150 152 154 156 158 160 162 164 166 168 170 172 174 176 178 180 182 184 186 188 190 192 194 196 198 200 </DataArray>
<DataArray  type="UInt8"  Name="types"  format="ascii">3 3 3 3 3 3 3 3 3 3 3 3 3 3 3 3 3 3 3 3 3 3 3 3 3 3 3 3 3 3 3 3 3 3 3 3 3 3 3 3 3 3 3 3 3 3 3 3 3 3 3 3 3 3 3 3 3 3 3 3 3 3 3 3 3 3 3 3 3 3 3 3 3 3 3 3 3 3 3 3 3 3 3 3 3 3 3 3 3 3 3 3 3 3 3 3 3 3 3 3 </DataArray>
</Cells>
<PointData  Scalars="f_13"> 
<DataArray  type="Float64"  Name="f_13"  format="ascii">1.7069598450375649e+03  1.7233161873052138e+03  1.7435615065080578e+03  1.7677250581844748e+03  1.7958527722669244e+03  1.8280082220050899e+03  1.8642731805034134e+03  1.9047479566406159e+03  1.9495516391315930e+03  1.9988223329937439e+03  2.0527174417290344e+03  2.1114140274000524e+03  2.1751092666811360e+03  2.2440210118469063e+03  2.3183884600122160e+03  2.3984729306650115e+03  2.4845587498510181e+03  2.5769542387189863e+03  2.6759928041276512e+03  2.7820341293824117e+03  2.8954654637303529e+03  3.0167030098780133e+03  3.1461934094319663e+03  3.2844153267524639e+03  3.4318811322297129e+03  3.5891386864285878e+03  3.7567732268967525e+03  3.9354093596942052e+03  4.1257131578827693e+03  4.3283943693167712e+03  4.5442087361061240e+03  4.7739604280849107e+03  5.0185045925164686e+03  5.2787500221032387e+03  5.5556619431488652e+03  5.8502649254431290e+03  6.1636459151085764e+03  6.4969573912619817e+03  6.8514206469045857e+03  7.2283291939625215e+03  7.6290522918533579e+03  8.0550385983561846e+03  8.5078199409118643e+03  8.9890152057772302e+03  9.5003343417036940e+03  1.0043582474007975e+04  1.0620664124053175e+04  1.1233587528264758e+04  1.1884469049872105e+04  1.2575537675596717e+04  1.3309139588508422e+04  1.4087742807247691e+04  1.4913941880772871e+04  1.5790462626744442e+04  1.6720166900613600e+04  1.7706057381449766e+04  1.8751282359531615e+04  1.9859140509749795e+04  2.1033085633936811e+04  2.2276731354359759e+04  2.3593855739792543e+04  2.4988405844828412e+04  2.6464502142400841e+04  2.8026442828842126e+04  2.9678707980205269e+04  3.1425963537974461e+04  3.3273065101641390e+04  3.5225061504855199e+04  3.7287198150858188e+04  3.9464920081554061e+04  4.1763874752628260e+04  4.4189914484397290e+04  4.6749098554181241e+04  4.9447694890551007e+04  5.2292181322281402e+04  5.5289246324595508e+04  5.8445789191533739e+04  6.1768919545087934e+04  6.5265956068017622e+04  6.8944424316775476e+04  7.2812053432355577e+04  7.6876771518732159e+04  8.1146699399528239e+04  8.5630142392543159e+04  9.0335579658229341e+04  9.5271650582606977e+04  1.0044713754958789e+05  1.0587094434708057e+05  1.1155206934446951e+05  1.1749957249107955e+05  1.2372253513983575e+05  1.3023001173391160e+05  1.3703097256089511e+05  1.4413423715781729e+05  1.5154839865430395e+05  1.5928174052966179e+05  1.6734214915531431e+05  1.7573702840340356e+05  1.8447322694446272e+05  1.9355699519880506e+05  2.0299399800863714e+05  </DataArray> 
</PointData> 
</Piece>
</UnstructuredGrid>
</VTKFile>