<?xml version="1.0"?>
<VTKFile type="UnstructuredGrid"  version="0.1"  >
<UnstructuredGrid>
<Piece  NumberOfPoints="101" NumberOfCells="100">
<Points>
<DataArray  type="Float64"  NumberOfComponents="3"  format="ascii">0 0 0  0.01 0 0  0.02 0 0  0.03 0 0  0.04 0 0  0.05 0 0  0.06 0 0  0.07000000000000001 0 0  0.08 0 0  0.09 0 0  0.1 0 0  0.11 0 0  0.12 0 0  0.13 0 0  0.14 0 0  0.15 0 0  0.16 0 0  0.17 0 0  0.18 0 0  0.19 0 0  0.2 0 0  0.21 0 0  0.22 0 0  0.23 0 0  0.24 0 0  0.25 0 0  0.26 0 0  0.27 0 0  0.28 0 0  0.29 0 0  0.3 0 0  0.31 0 0  0.32 0 0  0.33 0 0  0.34 0 0  0.35 0 0  0.36 0 0  0.37 0 0  0.38 0 0  0.39 0 0  0.4 0 0  0.41 0 0  0.42 0 0  0.43 0 0  0.44 0 0  0.45 0 0  0.46 0 0  0.47 0 0  0.48 0 0  0.49 0 0  0.5 0 0  0.51 0 0  0.52 0 0  0.53 0 0  0.54 0 0  0.55 0 0  0.5600000000000001 0 0  0.57 0 0  0.58 0 0  0.59 0 0  0.6 0 0  0.61 0 0  0.62 0 0  0.63 0 0  0.64 0 0  0.65 0 0  0.66 0 0  0.67 0 0  0.68 0 0  0.6899999999999999 0 0  0.7 0 0  0.71 0 0  0.72 0 0  0.73 0 0  0.74 0 0  0.75 0 0  0.76 0 0  0.77 0 0  0.78 0 0  0.79 0 0  0.8 0 0  0.8100000000000001 0 0  0.82 0 0  0.83 0 0  0.84 0 0  0.85 0 0  0.86 0 0  0.87 0 0  0.88 0 0  0.89 0 0  0.9 0 0  0.91 0 0  0.92 0 0  0.93 0 0  0.9399999999999999 0 0  0.95 0 0  0.96 0 0  0.97 0 0  0.98 0 0  0.99 0 0  1 0 0  </DataArray>
</Points>
<Cells>
<DataArray  type="UInt32"  Name="connectivity"  format="ascii">0 1  1 2  2 3  3 4  4 5  5 6  6 7  7 8  8 9  9 10  10 11  11 12  12 13  13 14  14 15  15 16  16 17  17 18  18 19  19 20  20 21  21 22  22 23  23 24  24 25  25 26  26 27  27 28  28 29  29 30  30 31  31 32  32 33  33 34  34 35  35 36  36 37  37 38  38 39  39 40  40 41  41 42  42 43  43 44  44 45  45 46  46 47  47 48  48 49  49 50  50 51  51 52  52 53  53 54  54 55  55 56  56 57  57 58  58 59  59 60  60 61  61 62  62 63  63 64  64 65  65 66  66 67  67 68  68 69  69 70  70 71  71 72  72 73  73 74  74 75  75 76  76 77  77 78  78 79  79 80  80 81  81 82  82 83  83 84  84 85  85 86  86 87  87 88  88 89  89 90  90 91  91 92  92 93  93 94  94 95  95 96  96 97  97 98  98 99  99 100  </DataArray>
<DataArray  type="UInt32"  Name="offsets"  format="ascii">2 4 6 8 10 12 14 16 18 20 22 24 26 28 30 32 34 36 38 40 42 44 46 48 50 52 54 56 58 60 62 64 66 68 70 72 74 76 78 80 82 84 86 88 90 92 94 96 98 100 102 104 106 108 110 112 114 116 118 120 122 124 126 128 130 132 134 136 138 140 142 144 146 148 150 152 154 156 158 160 162 164 166 168 170 172 174 176 178 180 182 184 186 188 190 192 194 196 198 200 </DataArray>
<DataArray  type="UInt8"  Name="types"  format="ascii">3 3 3 3 3 3 3 3 3 3 3 3 3 3 3 3 3 3 3 3 3 3 3 3 3 3 3 3 3 3 3 3 3 3 3 3 3 3 3 3 3 3 3 3 3 3 3 3 3 3 3 3 3 3 3 3 3 3 3 3 3 3 3 3 3 3 3 3 3 3 3 3 3 3 3 3 3 3 3 3 3 3 3 3 3 3 3 3 3 3 3 3 3 3 3 3 3 3 3 3 </DataArray>
</Cells>
<PointData  Scalars="f_13"> 
<DataArray  type="Float64"  Name="f_13"  format="ascii">9.8246657208703800e+02  9.8457730094649128e+02  9.8650938609523268e+02  9.8829549936989588e+02  9.8995926337371804e+02  9.9151752211999587e+02  9.9298216014681532e+02  9.9436154003316040e+02  9.9566162188486032e+02  9.9688682122965383e+02  9.9804065448868323e+02  9.9912621417831747e+02  1.0001465094827172e+03  1.0011047019530548e+03  1.0020042608857696e+03  1.0028490584105161e+03  1.0036434204469471e+03  1.0043921464174997e+03  1.0051005078705593e+03  1.0057742339109924e+03  1.0064194894901916e+03  1.0070428511159716e+03  1.0076512833494071e+03  1.0082521185121743e+03  1.0088530412912042e+03  1.0094620793602554e+03  1.0100876007085564e+03  1.0107383180480247e+03  1.0114233004402190e+03  1.0121519921234465e+03  1.0129342384139842e+03  1.0137803184906833e+03  1.0147009848392254e+03  1.0157075091229219e+03  1.0168117342547974e+03  1.0180261324657661e+03  1.0193638691920996e+03  1.0208388726391365e+03  1.0224659089150235e+03  1.0242606626665752e+03  1.0262398231878512e+03  1.0284211760099581e+03  1.0308237000172739e+03  1.0334676701704309e+03  1.0363747659497092e+03  1.0395681856639151e+03  1.0430727667992508e+03  1.0469151126101533e+03  1.0511237251795696e+03  1.0557291451996430e+03  1.0607640987453151e+03  1.0662636513327921e+03  1.0722653695721128e+03  1.0788094907379977e+03  1.0859391005954976e+03  1.0937003198263858e+03  1.1021424994083343e+03  1.1113184253011475e+03  1.1212845327921418e+03  1.1321011308454144e+03  1.1438326367865207e+03  1.1565478216340969e+03  1.1703200663624068e+03  1.1852276293427681e+03  1.2013539251665864e+03  1.2187878149976775e+03  1.2376239085363732e+03  1.2579628776027332e+03  1.2799117812618460e+03  1.3035844023224215e+03  1.3291015949437544e+03  1.3565916429904701e+03  1.3861906286864182e+03  1.4180428110488328e+03  1.4523010135455752e+03  1.4891270204310249e+03  1.5286919813054503e+03  1.5711768236418191e+03  1.6167726733761940e+03  1.6656812842182801e+03  1.7181154771772817e+03  1.7742995930025659e+03  1.8344699619175281e+03  1.8988753973123423e+03  1.9677777231201017e+03  2.0414523486282471e+03  2.1201889097085432e+03  2.2042920021626851e+03  2.2940820414020945e+03  2.3898962933843395e+03  2.4920901350395879e+03  2.6010386188104471e+03  2.7171384359083399e+03  2.8408103969935592e+03  2.9725025777454216e+03  3.1126943106897220e+03  3.2619012440707575e+03  3.4206817336726485e+03  3.5896448841557517e+03  3.7694606120106027e+03  3.9608721612077852e+03  </DataArray> 
</PointData> 
</Piece>
</UnstructuredGrid>
</VTKFile>