<?xml version="1.0"?>
<VTKFile type="UnstructuredGrid"  version="0.1"  >
<UnstructuredGrid>
<Piece  NumberOfPoints="101" NumberOfCells="100">
<Points>
<DataArray  type="Float64"  NumberOfComponents="3"  format="ascii">0 0 0  0.01 0 0  0.02 0 0  0.03 0 0  0.04 0 0  0.05 0 0  0.06 0 0  0.07000000000000001 0 0  0.08 0 0  0.09 0 0  0.1 0 0  0.11 0 0  0.12 0 0  0.13 0 0  0.14 0 0  0.15 0 0  0.16 0 0  0.17 0 0  0.18 0 0  0.19 0 0  0.2 0 0  0.21 0 0  0.22 0 0  0.23 0 0  0.24 0 0  0.25 0 0  0.26 0 0  0.27 0 0  0.28 0 0  0.29 0 0  0.3 0 0  0.31 0 0  0.32 0 0  0.33 0 0  0.34 0 0  0.35 0 0  0.36 0 0  0.37 0 0  0.38 0 0  0.39 0 0  0.4 0 0  0.41 0 0  0.42 0 0  0.43 0 0  0.44 0 0  0.45 0 0  0.46 0 0  0.47 0 0  0.48 0 0  0.49 0 0  0.5 0 0  0.51 0 0  0.52 0 0  0.53 0 0  0.54 0 0  0.55 0 0  0.5600000000000001 0 0  0.57 0 0  0.58 0 0  0.59 0 0  0.6 0 0  0.61 0 0  0.62 0 0  0.63 0 0  0.64 0 0  0.65 0 0  0.66 0 0  0.67 0 0  0.68 0 0  0.6899999999999999 0 0  0.7 0 0  0.71 0 0  0.72 0 0  0.73 0 0  0.74 0 0  0.75 0 0  0.76 0 0  0.77 0 0  0.78 0 0  0.79 0 0  0.8 0 0  0.8100000000000001 0 0  0.82 0 0  0.83 0 0  0.84 0 0  0.85 0 0  0.86 0 0  0.87 0 0  0.88 0 0  0.89 0 0  0.9 0 0  0.91 0 0  0.92 0 0  0.93 0 0  0.9399999999999999 0 0  0.95 0 0  0.96 0 0  0.97 0 0  0.98 0 0  0.99 0 0  1 0 0  </DataArray>
</Points>
<Cells>
<DataArray  type="UInt32"  Name="connectivity"  format="ascii">0 1  1 2  2 3  3 4  4 5  5 6  6 7  7 8  8 9  9 10  10 11  11 12  12 13  13 14  14 15  15 16  16 17  17 18  18 19  19 20  20 21  21 22  22 23  23 24  24 25  25 26  26 27  27 28  28 29  29 30  30 31  31 32  32 33  33 34  34 35  35 36  36 37  37 38  38 39  39 40  40 41  41 42  42 43  43 44  44 45  45 46  46 47  47 48  48 49  49 50  50 51  51 52  52 53  53 54  54 55  55 56  56 57  57 58  58 59  59 60  60 61  61 62  62 63  63 64  64 65  65 66  66 67  67 68  68 69  69 70  70 71  71 72  72 73  73 74  74 75  75 76  76 77  77 78  78 79  79 80  80 81  81 82  82 83  83 84  84 85  85 86  86 87  87 88  88 89  89 90  90 91  91 92  92 93  93 94  94 95  95 96  96 97  97 98  98 99  99 100  </DataArray>
<DataArray  type="UInt32"  Name="offsets"  format="ascii">2 4 6 8 10 12 14 16 18 20 22 24 26 28 30 32 34 36 38 40 42 44 46 48 50 52 54 56 58 60 62 64 66 68 70 72 74 76 78 80 82 84 86 88 90 92 94 96 98 100 102 104 106 108 110 112 114 116 118 120 122 124 126 128 130 132 134 136 138 140 142 144 146 148 150 152 154 156 158 160 162 164 166 168 170 172 174 176 178 180 182 184 186 188 190 192 194 196 198 200 </DataArray>
<DataArray  type="UInt8"  Name="types"  format="ascii">3 3 3 3 3 3 3 3 3 3 3 3 3 3 3 3 3 3 3 3 3 3 3 3 3 3 3 3 3 3 3 3 3 3 3 3 3 3 3 3 3 3 3 3 3 3 3 3 3 3 3 3 3 3 3 3 3 3 3 3 3 3 3 3 3 3 3 3 3 3 3 3 3 3 3 3 3 3 3 3 3 3 3 3 3 3 3 3 3 3 3 3 3 3 3 3 3 3 3 3 </DataArray>
</Cells>
<PointData  Scalars="f_13"> 
<DataArray  type="Float64"  Name="f_13"  format="ascii">3.7833361550386157e+03  3.7910204256057909e+03  3.8102915787294919e+03  3.8412716995586252e+03  3.8840931063544681e+03  3.9389046404428582e+03  4.0058768189087768e+03  4.0852060801078010e+03  4.1771183045180442e+03  4.2818717574972552e+03  4.3997595727632915e+03  4.5311118735672062e+03  4.6762976109914971e+03  4.8357261844921040e+03  5.0098488979570238e+03  5.1991602946462681e+03  5.4041994060265024e+03  5.6255509424377278e+03  5.8638464475139726e+03  6.1197654331554359e+03  6.3940365074771616e+03  6.6874385044229812e+03  7.0008016205334216e+03  7.3350085616062916e+03  7.6909956996134024e+03  8.0697542381702087e+03  8.4723313830397547e+03  8.8998315125379140e+03  9.3534173412505079e+03  9.8343110691373331e+03  1.0343795506852242e+04  1.0883215166925733e+04  1.1453977309315609e+04  1.2057552928714074e+04  1.2695477669892614e+04  1.3369352656257952e+04  1.4080845215675607e+04  1.4831689486486299e+04  1.5623686885491894e+04  1.6458706418519992e+04  1.7338684812990494e+04  1.8265626450705517e+04  1.9241603077869429e+04  2.0268753268123077e+04  2.1349281613152059e+04  2.2485457614209368e+04  2.3679614246686502e+04  2.4934146168682662e+04  2.6251507543368552e+04  2.7634209443829619e+04  2.9084816808014340e+04  3.0605944910416991e+04  3.2200255316203213e+04  3.3870451282652131e+04  3.5619272572053196e+04  3.7449489639571388e+04  3.9363897159094282e+04  4.1365306849712499e+04  4.3456539565276129e+04  4.5640416609430300e+04  4.7919750238685228e+04  5.0297333316440709e+04  5.2775928081496684e+04  5.5358253995477331e+04  5.8046974634829974e+04  6.0844683594700407e+04  6.3753889374125160e+04  6.6776999214740441e+04  6.9916301868745548e+04  7.3173949276385669e+04  7.6551937139004120e+04  8.0052084381104447e+04  8.3676011504301612e+04  8.7425117848083639e+04  9.1300557787647223e+04  9.5303215918574235e+04  9.9433681302832541e+04  1.0369222088179378e+05  1.0807875220119745e+05  1.1259281564207765e+05  1.1723354641275275e+05  1.2199964663255414e+05  1.2688935793091185e+05  1.3190043509899461e+05  1.3703012146900274e+05  1.4227512686255327e+05  1.4763160914892241e+05  1.5309516069124395e+05  1.5866080123963323e+05  1.6432297916077732e+05  1.7007558328082872e+05  1.7591196807076421e+05  1.8182499543106393e+05  1.8780709694925553e+05  1.9385036122854170e+05  1.9994665174598611e+05  2.0608776173584437e+05  2.1226561387023705e+05  2.1847251412094617e+05  2.2470147127795927e+05  2.3094659639218479e+05  </DataArray> 
</PointData> 
</Piece>
</UnstructuredGrid>
</VTKFile>