<?xml version="1.0"?>
<VTKFile type="UnstructuredGrid"  version="0.1"  >
<UnstructuredGrid>
<Piece  NumberOfPoints="101" NumberOfCells="100">
<Points>
<DataArray  type="Float64"  NumberOfComponents="3"  format="ascii">0 0 0  0.01 0 0  0.02 0 0  0.03 0 0  0.04 0 0  0.05 0 0  0.06 0 0  0.07000000000000001 0 0  0.08 0 0  0.09 0 0  0.1 0 0  0.11 0 0  0.12 0 0  0.13 0 0  0.14 0 0  0.15 0 0  0.16 0 0  0.17 0 0  0.18 0 0  0.19 0 0  0.2 0 0  0.21 0 0  0.22 0 0  0.23 0 0  0.24 0 0  0.25 0 0  0.26 0 0  0.27 0 0  0.28 0 0  0.29 0 0  0.3 0 0  0.31 0 0  0.32 0 0  0.33 0 0  0.34 0 0  0.35 0 0  0.36 0 0  0.37 0 0  0.38 0 0  0.39 0 0  0.4 0 0  0.41 0 0  0.42 0 0  0.43 0 0  0.44 0 0  0.45 0 0  0.46 0 0  0.47 0 0  0.48 0 0  0.49 0 0  0.5 0 0  0.51 0 0  0.52 0 0  0.53 0 0  0.54 0 0  0.55 0 0  0.5600000000000001 0 0  0.57 0 0  0.58 0 0  0.59 0 0  0.6 0 0  0.61 0 0  0.62 0 0  0.63 0 0  0.64 0 0  0.65 0 0  0.66 0 0  0.67 0 0  0.68 0 0  0.6899999999999999 0 0  0.7 0 0  0.71 0 0  0.72 0 0  0.73 0 0  0.74 0 0  0.75 0 0  0.76 0 0  0.77 0 0  0.78 0 0  0.79 0 0  0.8 0 0  0.8100000000000001 0 0  0.82 0 0  0.83 0 0  0.84 0 0  0.85 0 0  0.86 0 0  0.87 0 0  0.88 0 0  0.89 0 0  0.9 0 0  0.91 0 0  0.92 0 0  0.93 0 0  0.9399999999999999 0 0  0.95 0 0  0.96 0 0  0.97 0 0  0.98 0 0  0.99 0 0  1 0 0  </DataArray>
</Points>
<Cells>
<DataArray  type="UInt32"  Name="connectivity"  format="ascii">0 1  1 2  2 3  3 4  4 5  5 6  6 7  7 8  8 9  9 10  10 11  11 12  12 13  13 14  14 15  15 16  16 17  17 18  18 19  19 20  20 21  21 22  22 23  23 24  24 25  25 26  26 27  27 28  28 29  29 30  30 31  31 32  32 33  33 34  34 35  35 36  36 37  37 38  38 39  39 40  40 41  41 42  42 43  43 44  44 45  45 46  46 47  47 48  48 49  49 50  50 51  51 52  52 53  53 54  54 55  55 56  56 57  57 58  58 59  59 60  60 61  61 62  62 63  63 64  64 65  65 66  66 67  67 68  68 69  69 70  70 71  71 72  72 73  73 74  74 75  75 76  76 77  77 78  78 79  79 80  80 81  81 82  82 83  83 84  84 85  85 86  86 87  87 88  88 89  89 90  90 91  91 92  92 93  93 94  94 95  95 96  96 97  97 98  98 99  99 100  </DataArray>
<DataArray  type="UInt32"  Name="offsets"  format="ascii">2 4 6 8 10 12 14 16 18 20 22 24 26 28 30 32 34 36 38 40 42 44 46 48 50 52 54 56 58 60 62 64 66 68 70 72 74 76 78 80 82 84 86 88 90 92 94 96 98 100 102 104 106 108 110 112 114 116 118 120 122 124 126 128 130 132 134 136 138 140 142 144 146 148 150 152 154 156 158 160 162 164 166 168 170 172 174 176 178 180 182 184 186 188 190 192 194 196 198 200 </DataArray>
<DataArray  type="UInt8"  Name="types"  format="ascii">3 3 3 3 3 3 3 3 3 3 3 3 3 3 3 3 3 3 3 3 3 3 3 3 3 3 3 3 3 3 3 3 3 3 3 3 3 3 3 3 3 3 3 3 3 3 3 3 3 3 3 3 3 3 3 3 3 3 3 3 3 3 3 3 3 3 3 3 3 3 3 3 3 3 3 3 3 3 3 3 3 3 3 3 3 3 3 3 3 3 3 3 3 3 3 3 3 3 3 3 </DataArray>
</Cells>
<PointData  Scalars="f_13"> 
<DataArray  type="Float64"  Name="f_13"  format="ascii">9.6235553544228492e+02  9.6674279466382347e+02  9.7066600997804085e+02  9.7419497811667361e+02  9.7738603905502941e+02  9.8028522024240749e+02  9.8293059857083483e+02  9.8535408098926860e+02  9.8758275380285693e+02  9.8963991220881326e+02  9.9154585266076037e+02  9.9331848898714361e+02  9.9497383707379959e+02  9.9652640100437225e+02  9.9798948479252806e+02  9.9937544743757451e+02  1.0006959143810658e+03  1.0019619550752038e+03  1.0031842339476609e+03  1.0043731403031776e+03  1.0055389014483776e+03  1.0066916824221248e+03  1.0078416750571517e+03  1.0089991786160194e+03  1.0101746738832970e+03  1.0113788923193043e+03  1.0126228816632391e+03  1.0139180691975017e+03  1.0152763237387206e+03  1.0167100172965507e+03  1.0182320872336637e+03  1.0198560996661622e+03  1.0215963147608433e+03  1.0234677545129099e+03  1.0254862735239878e+03  1.0276686332449378e+03  1.0300325801004365e+03  1.0325969278721229e+03  1.0353816446837895e+03  1.0384079449051535e+03  1.0416983862696998e+03  1.0452769724864313e+03  1.0491692616146281e+03  1.0534024804644548e+03  1.0580056452840106e+03  1.0630096889948463e+03  1.0684475952427033e+03  1.0743545395380438e+03  1.0807680377716156e+03  1.0877281024037359e+03  1.0952774066421880e+03  1.1034614569426712e+03  1.1123287741878514e+03  1.1219310839265654e+03  1.1323235160840975e+03  1.1435648145883301e+03  1.1557175573957538e+03  1.1688483874468413e+03  1.1830282551333412e+03  1.1983326729220994e+03  1.2148419828528029e+03  1.2326416377125495e+03  1.2518224967907292e+03  1.2724811372360127e+03  1.2947201821763183e+03  1.3186486469258919e+03  1.3443823047949602e+03  1.3720440742410754e+03  1.4017644293620917e+03  1.4336818360339994e+03  1.4679432163485660e+03  1.5047044444125079e+03  1.5441308770393123e+03  1.5863979234054375e+03  1.6316916583646027e+03  1.6802094848294128e+03  1.7321608514537268e+03  1.7877680328012084e+03  1.8472669802905152e+03  1.9109082534992792e+03  1.9789580429331179e+03  2.0516992971853902e+03  2.1294329696154364e+03  2.2124794023786617e+03  2.3011798690190758e+03  2.3958983011165965e+03  2.4970232299888216e+03  2.6049699816216403e+03  2.7201831724486642e+03  2.8431395661371243e+03  2.9743513682783259e+03  3.1143700583184482e+03  3.2637908882005049e+03  3.4232582176832157e+03  3.5934719106843136e+03  3.7751950899127755e+03  3.9692636446040260e+03  4.1765980163157610e+03  4.3982179608279012e+03  4.6352612136120124e+03  4.8890072893553852e+03  </DataArray> 
</PointData> 
</Piece>
</UnstructuredGrid>
</VTKFile>