<?xml version="1.0"?>
<VTKFile type="UnstructuredGrid"  version="0.1"  >
<UnstructuredGrid>
<Piece  NumberOfPoints="101" NumberOfCells="100">
<Points>
<DataArray  type="Float64"  NumberOfComponents="3"  format="ascii">0 0 0  0.01 0 0  0.02 0 0  0.03 0 0  0.04 0 0  0.05 0 0  0.06 0 0  0.07000000000000001 0 0  0.08 0 0  0.09 0 0  0.1 0 0  0.11 0 0  0.12 0 0  0.13 0 0  0.14 0 0  0.15 0 0  0.16 0 0  0.17 0 0  0.18 0 0  0.19 0 0  0.2 0 0  0.21 0 0  0.22 0 0  0.23 0 0  0.24 0 0  0.25 0 0  0.26 0 0  0.27 0 0  0.28 0 0  0.29 0 0  0.3 0 0  0.31 0 0  0.32 0 0  0.33 0 0  0.34 0 0  0.35 0 0  0.36 0 0  0.37 0 0  0.38 0 0  0.39 0 0  0.4 0 0  0.41 0 0  0.42 0 0  0.43 0 0  0.44 0 0  0.45 0 0  0.46 0 0  0.47 0 0  0.48 0 0  0.49 0 0  0.5 0 0  0.51 0 0  0.52 0 0  0.53 0 0  0.54 0 0  0.55 0 0  0.5600000000000001 0 0  0.57 0 0  0.58 0 0  0.59 0 0  0.6 0 0  0.61 0 0  0.62 0 0  0.63 0 0  0.64 0 0  0.65 0 0  0.66 0 0  0.67 0 0  0.68 0 0  0.6899999999999999 0 0  0.7 0 0  0.71 0 0  0.72 0 0  0.73 0 0  0.74 0 0  0.75 0 0  0.76 0 0  0.77 0 0  0.78 0 0  0.79 0 0  0.8 0 0  0.8100000000000001 0 0  0.82 0 0  0.83 0 0  0.84 0 0  0.85 0 0  0.86 0 0  0.87 0 0  0.88 0 0  0.89 0 0  0.9 0 0  0.91 0 0  0.92 0 0  0.93 0 0  0.9399999999999999 0 0  0.95 0 0  0.96 0 0  0.97 0 0  0.98 0 0  0.99 0 0  1 0 0  </DataArray>
</Points>
<Cells>
<DataArray  type="UInt32"  Name="connectivity"  format="ascii">0 1  1 2  2 3  3 4  4 5  5 6  6 7  7 8  8 9  9 10  10 11  11 12  12 13  13 14  14 15  15 16  16 17  17 18  18 19  19 20  20 21  21 22  22 23  23 24  24 25  25 26  26 27  27 28  28 29  29 30  30 31  31 32  32 33  33 34  34 35  35 36  36 37  37 38  38 39  39 40  40 41  41 42  42 43  43 44  44 45  45 46  46 47  47 48  48 49  49 50  50 51  51 52  52 53  53 54  54 55  55 56  56 57  57 58  58 59  59 60  60 61  61 62  62 63  63 64  64 65  65 66  66 67  67 68  68 69  69 70  70 71  71 72  72 73  73 74  74 75  75 76  76 77  77 78  78 79  79 80  80 81  81 82  82 83  83 84  84 85  85 86  86 87  87 88  88 89  89 90  90 91  91 92  92 93  93 94  94 95  95 96  96 97  97 98  98 99  99 100  </DataArray>
<DataArray  type="UInt32"  Name="offsets"  format="ascii">2 4 6 8 10 12 14 16 18 20 22 24 26 28 30 32 34 36 38 40 42 44 46 48 50 52 54 56 58 60 62 64 66 68 70 72 74 76 78 80 82 84 86 88 90 92 94 96 98 100 102 104 106 108 110 112 114 116 118 120 122 124 126 128 130 132 134 136 138 140 142 144 146 148 150 152 154 156 158 160 162 164 166 168 170 172 174 176 178 180 182 184 186 188 190 192 194 196 198 200 </DataArray>
<DataArray  type="UInt8"  Name="types"  format="ascii">3 3 3 3 3 3 3 3 3 3 3 3 3 3 3 3 3 3 3 3 3 3 3 3 3 3 3 3 3 3 3 3 3 3 3 3 3 3 3 3 3 3 3 3 3 3 3 3 3 3 3 3 3 3 3 3 3 3 3 3 3 3 3 3 3 3 3 3 3 3 3 3 3 3 3 3 3 3 3 3 3 3 3 3 3 3 3 3 3 3 3 3 3 3 3 3 3 3 3 3 </DataArray>
</Cells>
<PointData  Scalars="f_13"> 
<DataArray  type="Float64"  Name="f_13"  format="ascii">1.0248476223754906e+03  1.0247894894900678e+03  1.0244476000808945e+03  1.0238865086252509e+03  1.0231579207040278e+03  1.0223035829870181e+03  1.0213574535338389e+03  1.0203473316994467e+03  1.0192960848606537e+03  1.0182225762012514e+03  1.0171423721260435e+03  1.0160682880409333e+03  1.0150108160252346e+03  1.0139784663481071e+03  1.0129780460485046e+03  1.0120148912705934e+03  1.0110930652177829e+03  1.0102155300580297e+03  1.0093842985666013e+03  1.0086005694848113e+03  1.0078648493143601e+03  1.0071770624107171e+03  1.0065366506739648e+03  1.0059426637773960e+03  1.0053938406598411e+03  1.0048886828905612e+03  1.0044255204616024e+03  1.0040025705474629e+03  1.0036179897787534e+03  1.0032699205937140e+03  1.0029565322514741e+03  1.0026760571092433e+03  1.0024268227797315e+03  1.0022072807939761e+03  1.0020160323983639e+03  1.0018518521135071e+03  1.0017137096776968e+03  1.0016007909899533e+03  1.0015125186583591e+03  1.0014485727494061e+03  1.0014089123244895e+03  1.0013937983411892e+03  1.0014038184902500e+03  1.0014399145346247e+03  1.0015034127148743e+03  1.0015960577857188e+03  1.0017200512515298e+03  1.0018780943738468e+03  1.0020734365311904e+03  1.0023099295200211e+03  1.0025920883950012e+03  1.0029251594559499e+03  1.0033151959971298e+03  1.0037691424407127e+03  1.0042949274792992e+03  1.0049015668509328e+03  1.0055992763628253e+03  1.0063995957655454e+03  1.0073155240562705e+03  1.0083616667563376e+03  1.0095543956632980e+03  1.0109120215195471e+03  1.0124549799670799e+03  1.0142060310699039e+03  1.0161904725812950e+03  1.0184363670119363e+03  1.0209747824170583e+03  1.0238400466666213e+03  1.0270700147937193e+03  1.0307063488350339e+03  1.0347948093866946e+03  1.0393855579040080e+03  1.0445334685803512e+03  1.0502984484571034e+03  1.0567457642527722e+03  1.0639463742679177e+03  1.0719772636382836e+03  1.0809217811902354e+03  1.0908699762226670e+03  1.1019189337252405e+03  1.1141731068773893e+03  1.1277446461966185e+03  1.1427537254685569e+03  1.1593288656575896e+03  1.1776072594447771e+03  1.1977351009697099e+03  1.2198679278942668e+03  1.2441709862263992e+03  1.2708196326592108e+03  1.2999997947799684e+03  1.3319085167588571e+03  1.3667546275274449e+03  1.4047595806413215e+03  1.4461585308231781e+03  1.4912017326820935e+03  1.5401563736956996e+03  1.5933089880109630e+03  1.6509686422411514e+03  1.7134711420845861e+03  1.7811845828648798e+03  1.8545166624612707e+03  </DataArray> 
</PointData> 
</Piece>
</UnstructuredGrid>
</VTKFile>