<?xml version="1.0"?>
<VTKFile type="UnstructuredGrid"  version="0.1"  >
<UnstructuredGrid>
<Piece  NumberOfPoints="101" NumberOfCells="100">
<Points>
<DataArray  type="Float64"  NumberOfComponents="3"  format="ascii">0 0 0  0.01 0 0  0.02 0 0  0.03 0 0  0.04 0 0  0.05 0 0  0.06 0 0  0.07000000000000001 0 0  0.08 0 0  0.09 0 0  0.1 0 0  0.11 0 0  0.12 0 0  0.13 0 0  0.14 0 0  0.15 0 0  0.16 0 0  0.17 0 0  0.18 0 0  0.19 0 0  0.2 0 0  0.21 0 0  0.22 0 0  0.23 0 0  0.24 0 0  0.25 0 0  0.26 0 0  0.27 0 0  0.28 0 0  0.29 0 0  0.3 0 0  0.31 0 0  0.32 0 0  0.33 0 0  0.34 0 0  0.35 0 0  0.36 0 0  0.37 0 0  0.38 0 0  0.39 0 0  0.4 0 0  0.41 0 0  0.42 0 0  0.43 0 0  0.44 0 0  0.45 0 0  0.46 0 0  0.47 0 0  0.48 0 0  0.49 0 0  0.5 0 0  0.51 0 0  0.52 0 0  0.53 0 0  0.54 0 0  0.55 0 0  0.5600000000000001 0 0  0.57 0 0  0.58 0 0  0.59 0 0  0.6 0 0  0.61 0 0  0.62 0 0  0.63 0 0  0.64 0 0  0.65 0 0  0.66 0 0  0.67 0 0  0.68 0 0  0.6899999999999999 0 0  0.7 0 0  0.71 0 0  0.72 0 0  0.73 0 0  0.74 0 0  0.75 0 0  0.76 0 0  0.77 0 0  0.78 0 0  0.79 0 0  0.8 0 0  0.8100000000000001 0 0  0.82 0 0  0.83 0 0  0.84 0 0  0.85 0 0  0.86 0 0  0.87 0 0  0.88 0 0  0.89 0 0  0.9 0 0  0.91 0 0  0.92 0 0  0.93 0 0  0.9399999999999999 0 0  0.95 0 0  0.96 0 0  0.97 0 0  0.98 0 0  0.99 0 0  1 0 0  </DataArray>
</Points>
<Cells>
<DataArray  type="UInt32"  Name="connectivity"  format="ascii">0 1  1 2  2 3  3 4  4 5  5 6  6 7  7 8  8 9  9 10  10 11  11 12  12 13  13 14  14 15  15 16  16 17  17 18  18 19  19 20  20 21  21 22  22 23  23 24  24 25  25 26  26 27  27 28  28 29  29 30  30 31  31 32  32 33  33 34  34 35  35 36  36 37  37 38  38 39  39 40  40 41  41 42  42 43  43 44  44 45  45 46  46 47  47 48  48 49  49 50  50 51  51 52  52 53  53 54  54 55  55 56  56 57  57 58  58 59  59 60  60 61  61 62  62 63  63 64  64 65  65 66  66 67  67 68  68 69  69 70  70 71  71 72  72 73  73 74  74 75  75 76  76 77  77 78  78 79  79 80  80 81  81 82  82 83  83 84  84 85  85 86  86 87  87 88  88 89  89 90  90 91  91 92  92 93  93 94  94 95  95 96  96 97  97 98  98 99  99 100  </DataArray>
<DataArray  type="UInt32"  Name="offsets"  format="ascii">2 4 6 8 10 12 14 16 18 20 22 24 26 28 30 32 34 36 38 40 42 44 46 48 50 52 54 56 58 60 62 64 66 68 70 72 74 76 78 80 82 84 86 88 90 92 94 96 98 100 102 104 106 108 110 112 114 116 118 120 122 124 126 128 130 132 134 136 138 140 142 144 146 148 150 152 154 156 158 160 162 164 166 168 170 172 174 176 178 180 182 184 186 188 190 192 194 196 198 200 </DataArray>
<DataArray  type="UInt8"  Name="types"  format="ascii">3 3 3 3 3 3 3 3 3 3 3 3 3 3 3 3 3 3 3 3 3 3 3 3 3 3 3 3 3 3 3 3 3 3 3 3 3 3 3 3 3 3 3 3 3 3 3 3 3 3 3 3 3 3 3 3 3 3 3 3 3 3 3 3 3 3 3 3 3 3 3 3 3 3 3 3 3 3 3 3 3 3 3 3 3 3 3 3 3 3 3 3 3 3 3 3 3 3 3 3 </DataArray>
</Cells>
<PointData  Scalars="f_13"> 
<DataArray  type="Float64"  Name="f_13"  format="ascii">9.8687936208969688e+02  9.8811102339688034e+02  9.8939895157643468e+02  9.9072013988408810e+02  9.9205304833666003e+02  9.9337837265937003e+02  9.9467945936136573e+02  9.9594246949252636e+02  9.9715636899025924e+02  9.9831280417745688e+02  9.9940590588376017e+02  1.0004320539776447e+03  1.0013896251184608e+03  1.0022787396982014e+03  1.0031010187841916e+03  1.0038593580278656e+03  1.0045577226770076e+03  1.0052009657852850e+03  1.0057946702685290e+03  1.0063450144665184e+03  1.0068586602181819e+03  1.0073426620587813e+03  1.0078043959315343e+03  1.0082515057210384e+03  1.0086918659220970e+03  1.0091335588252789e+03  1.0095848647075927e+03  1.0100542636467687e+03  1.0105504477190883e+03  1.0110823424852446e+03  1.0116591368106931e+03  1.0122903202026821e+03  1.0129857269733620e+03  1.0137555866558536e+03  1.0146105802074355e+03  1.0155619016311225e+03  1.0166213247342444e+03  1.0178012748208089e+03  1.0191149051841653e+03  1.0205761783285902e+03  1.0221999519037001e+03  1.0240020693848569e+03  1.0259994555767419e+03  1.0282102170567459e+03  1.0306537477104121e+03  1.0333508395434860e+03  1.0363237989846991e+03  1.0395965689207276e+03  1.0431948567302090e+03  1.0471462686076534e+03  1.0514804504907702e+03  1.0562292359263997e+03  1.0614268012309692e+03  1.0671098283212332e+03  1.0733176756099397e+03  1.0800925573787690e+03  1.0874797320571411e+03  1.0955276998497395e+03  1.1042884101672562e+03  1.1138174793229612e+03  1.1241744189612084e+03  1.1354228756813895e+03  1.1476308823104832e+03  1.1608711212570336e+03  1.1752212003466104e+03  1.1907639414905411e+03  1.2075876824723789e+03  1.2257865920461265e+03  1.2454609984219067e+03  1.2667177310632514e+03  1.2896704755295236e+03  1.3144401408606266e+03  1.3411552387121292e+03  1.3699522730998524e+03  1.4009761391964566e+03  1.4343805291315705e+03  1.4703283421753379e+03  1.5089920960285133e+03  1.5505543351988024e+03  1.5952080316157937e+03  1.6431569717347663e+03  1.6946161234212016e+03  1.7498119749240689e+03  1.8089828372853715e+03  1.8723791006680224e+03  1.9402634344172102e+03  2.0129109203466828e+03  2.0906091089596839e+03  2.1736579893438384e+03  2.2623698656800975e+03  2.3570691371544149e+03  2.4580919841821442e+03  2.5657859730625887e+03  2.6805096045257815e+03  2.8026318504648639e+03  2.9325317491873802e+03  3.0705981649524665e+03  3.2172298651454785e+03  3.3728361316373112e+03  3.5378382060017470e+03  3.7126719766818883e+03  </DataArray> 
</PointData> 
</Piece>
</UnstructuredGrid>
</VTKFile>