<?xml version="1.0"?>
<VTKFile type="UnstructuredGrid"  version="0.1"  >
<UnstructuredGrid>
<Piece  NumberOfPoints="101" NumberOfCells="100">
<Points>
<DataArray  type="Float64"  NumberOfComponents="3"  format="ascii">0 0 0  0.01 0 0  0.02 0 0  0.03 0 0  0.04 0 0  0.05 0 0  0.06 0 0  0.07000000000000001 0 0  0.08 0 0  0.09 0 0  0.1 0 0  0.11 0 0  0.12 0 0  0.13 0 0  0.14 0 0  0.15 0 0  0.16 0 0  0.17 0 0  0.18 0 0  0.19 0 0  0.2 0 0  0.21 0 0  0.22 0 0  0.23 0 0  0.24 0 0  0.25 0 0  0.26 0 0  0.27 0 0  0.28 0 0  0.29 0 0  0.3 0 0  0.31 0 0  0.32 0 0  0.33 0 0  0.34 0 0  0.35 0 0  0.36 0 0  0.37 0 0  0.38 0 0  0.39 0 0  0.4 0 0  0.41 0 0  0.42 0 0  0.43 0 0  0.44 0 0  0.45 0 0  0.46 0 0  0.47 0 0  0.48 0 0  0.49 0 0  0.5 0 0  0.51 0 0  0.52 0 0  0.53 0 0  0.54 0 0  0.55 0 0  0.5600000000000001 0 0  0.57 0 0  0.58 0 0  0.59 0 0  0.6 0 0  0.61 0 0  0.62 0 0  0.63 0 0  0.64 0 0  0.65 0 0  0.66 0 0  0.67 0 0  0.68 0 0  0.6899999999999999 0 0  0.7 0 0  0.71 0 0  0.72 0 0  0.73 0 0  0.74 0 0  0.75 0 0  0.76 0 0  0.77 0 0  0.78 0 0  0.79 0 0  0.8 0 0  0.8100000000000001 0 0  0.82 0 0  0.83 0 0  0.84 0 0  0.85 0 0  0.86 0 0  0.87 0 0  0.88 0 0  0.89 0 0  0.9 0 0  0.91 0 0  0.92 0 0  0.93 0 0  0.9399999999999999 0 0  0.95 0 0  0.96 0 0  0.97 0 0  0.98 0 0  0.99 0 0  1 0 0  </DataArray>
</Points>
<Cells>
<DataArray  type="UInt32"  Name="connectivity"  format="ascii">0 1  1 2  2 3  3 4  4 5  5 6  6 7  7 8  8 9  9 10  10 11  11 12  12 13  13 14  14 15  15 16  16 17  17 18  18 19  19 20  20 21  21 22  22 23  23 24  24 25  25 26  26 27  27 28  28 29  29 30  30 31  31 32  32 33  33 34  34 35  35 36  36 37  37 38  38 39  39 40  40 41  41 42  42 43  43 44  44 45  45 46  46 47  47 48  48 49  49 50  50 51  51 52  52 53  53 54  54 55  55 56  56 57  57 58  58 59  59 60  60 61  61 62  62 63  63 64  64 65  65 66  66 67  67 68  68 69  69 70  70 71  71 72  72 73  73 74  74 75  75 76  76 77  77 78  78 79  79 80  80 81  81 82  82 83  83 84  84 85  85 86  86 87  87 88  88 89  89 90  90 91  91 92  92 93  93 94  94 95  95 96  96 97  97 98  98 99  99 100  </DataArray>
<DataArray  type="UInt32"  Name="offsets"  format="ascii">2 4 6 8 10 12 14 16 18 20 22 24 26 28 30 32 34 36 38 40 42 44 46 48 50 52 54 56 58 60 62 64 66 68 70 72 74 76 78 80 82 84 86 88 90 92 94 96 98 100 102 104 106 108 110 112 114 116 118 120 122 124 126 128 130 132 134 136 138 140 142 144 146 148 150 152 154 156 158 160 162 164 166 168 170 172 174 176 178 180 182 184 186 188 190 192 194 196 198 200 </DataArray>
<DataArray  type="UInt8"  Name="types"  format="ascii">3 3 3 3 3 3 3 3 3 3 3 3 3 3 3 3 3 3 3 3 3 3 3 3 3 3 3 3 3 3 3 3 3 3 3 3 3 3 3 3 3 3 3 3 3 3 3 3 3 3 3 3 3 3 3 3 3 3 3 3 3 3 3 3 3 3 3 3 3 3 3 3 3 3 3 3 3 3 3 3 3 3 3 3 3 3 3 3 3 3 3 3 3 3 3 3 3 3 3 3 </DataArray>
</Cells>
<PointData  Scalars="f_13"> 
<DataArray  type="Float64"  Name="f_13"  format="ascii">9.8512652296369879e+02  9.9055422470321014e+02  9.9593858126151861e+02  1.0013353236272151e+03  1.0067959156243260e+03  1.0123680464422378e+03  1.0180961068849097e+03  1.0240216549771219e+03  1.0301838727803768e+03  1.0366200139496914e+03  1.0433658403376621e+03  1.0504560455050280e+03  1.0579246630672712e+03  1.0658054581924921e+03  1.0741323011168640e+03  1.0829395221543982e+03  1.0922622482765810e+03  1.1021367218809480e+03  1.1126006028320151e+03  1.1236932552337162e+03  1.1354560206796268e+03  1.1479324799319850e+03  1.1611687051124227e+03  1.1752135045576360e+03  1.1901186625134339e+03  1.2059391758217246e+03  1.2227334897070298e+03  1.2405637347007519e+03  1.2594959666600776e+03  1.2796004117501166e+03  1.3009517181674676e+03  1.3236292162946133e+03  1.3477171888901275e+03  1.3733051528415738e+03  1.4004881539375212e+03  1.4293670760530238e+03  1.4600489660895719e+03  1.4926473759659923e+03  1.5272827229208260e+03  1.5640826693590839e+03  1.6031825234565388e+03  1.6447256617224855e+03  1.6888639747167927e+03  1.7357583371188189e+03  1.7855791033542089e+03  1.8385066300007331e+03  1.8947318262164358e+03  1.9544567334629162e+03  2.0178951358343900e+03  2.0852732023504823e+03  2.1568301626291268e+03  2.2328190174276187e+03  2.3135072856275910e+03  2.3991777893468648e+03  2.4901294789920157e+03  2.5866783002253073e+03  2.6891581050145064e+03  2.7979216091715134e+03  2.9133413990744234e+03  3.0358109906178365e+03  3.1657459438600977e+03  3.3035850373473095e+03  3.4497915067086096e+03  3.6048543528534074e+03  3.7692897259796978e+03  3.9436423926464545e+03  4.1284872943982728e+03  4.3244312078855164e+03  4.5321145181294341e+03  4.7522131185728931e+03  4.9854404538694580e+03  5.2325497240343193e+03  5.4943362716489019e+03  5.7716401773155267e+03  6.0653490925371407e+03  6.3764013436844161e+03  6.7057893457383461e+03  7.0545633700831740e+03  7.4238357167841077e+03  7.8147853485153382e+03  8.2286630505878020e+03  8.6667971893239446e+03  9.1306001492757769e+03  9.6215755383944997e+03  1.0141326259120126e+04  1.0691563552329873e+04  1.1274117130008655e+04  1.1890946521225058e+04  1.2544153764370429e+04  1.3235997586558808e+04  1.3968909218605937e+04  1.4745510001294486e+04  1.5568630946147781e+04  1.6441334422528536e+04  1.7366938153959472e+04  1.8349041722283931e+04  1.9391555801771097e+04  2.0498734380859249e+04  2.1675210282696469e+04  2.2926034374366543e+04  2.4256718967686058e+04  </DataArray> 
</PointData> 
</Piece>
</UnstructuredGrid>
</VTKFile>