<?xml version="1.0"?>
<VTKFile type="UnstructuredGrid"  version="0.1"  >
<UnstructuredGrid>
<Piece  NumberOfPoints="101" NumberOfCells="100">
<Points>
<DataArray  type="Float64"  NumberOfComponents="3"  format="ascii">0 0 0  0.01 0 0  0.02 0 0  0.03 0 0  0.04 0 0  0.05 0 0  0.06 0 0  0.07000000000000001 0 0  0.08 0 0  0.09 0 0  0.1 0 0  0.11 0 0  0.12 0 0  0.13 0 0  0.14 0 0  0.15 0 0  0.16 0 0  0.17 0 0  0.18 0 0  0.19 0 0  0.2 0 0  0.21 0 0  0.22 0 0  0.23 0 0  0.24 0 0  0.25 0 0  0.26 0 0  0.27 0 0  0.28 0 0  0.29 0 0  0.3 0 0  0.31 0 0  0.32 0 0  0.33 0 0  0.34 0 0  0.35 0 0  0.36 0 0  0.37 0 0  0.38 0 0  0.39 0 0  0.4 0 0  0.41 0 0  0.42 0 0  0.43 0 0  0.44 0 0  0.45 0 0  0.46 0 0  0.47 0 0  0.48 0 0  0.49 0 0  0.5 0 0  0.51 0 0  0.52 0 0  0.53 0 0  0.54 0 0  0.55 0 0  0.5600000000000001 0 0  0.57 0 0  0.58 0 0  0.59 0 0  0.6 0 0  0.61 0 0  0.62 0 0  0.63 0 0  0.64 0 0  0.65 0 0  0.66 0 0  0.67 0 0  0.68 0 0  0.6899999999999999 0 0  0.7 0 0  0.71 0 0  0.72 0 0  0.73 0 0  0.74 0 0  0.75 0 0  0.76 0 0  0.77 0 0  0.78 0 0  0.79 0 0  0.8 0 0  0.8100000000000001 0 0  0.82 0 0  0.83 0 0  0.84 0 0  0.85 0 0  0.86 0 0  0.87 0 0  0.88 0 0  0.89 0 0  0.9 0 0  0.91 0 0  0.92 0 0  0.93 0 0  0.9399999999999999 0 0  0.95 0 0  0.96 0 0  0.97 0 0  0.98 0 0  0.99 0 0  1 0 0  </DataArray>
</Points>
<Cells>
<DataArray  type="UInt32"  Name="connectivity"  format="ascii">0 1  1 2  2 3  3 4  4 5  5 6  6 7  7 8  8 9  9 10  10 11  11 12  12 13  13 14  14 15  15 16  16 17  17 18  18 19  19 20  20 21  21 22  22 23  23 24  24 25  25 26  26 27  27 28  28 29  29 30  30 31  31 32  32 33  33 34  34 35  35 36  36 37  37 38  38 39  39 40  40 41  41 42  42 43  43 44  44 45  45 46  46 47  47 48  48 49  49 50  50 51  51 52  52 53  53 54  54 55  55 56  56 57  57 58  58 59  59 60  60 61  61 62  62 63  63 64  64 65  65 66  66 67  67 68  68 69  69 70  70 71  71 72  72 73  73 74  74 75  75 76  76 77  77 78  78 79  79 80  80 81  81 82  82 83  83 84  84 85  85 86  86 87  87 88  88 89  89 90  90 91  91 92  92 93  93 94  94 95  95 96  96 97  97 98  98 99  99 100  </DataArray>
<DataArray  type="UInt32"  Name="offsets"  format="ascii">2 4 6 8 10 12 14 16 18 20 22 24 26 28 30 32 34 36 38 40 42 44 46 48 50 52 54 56 58 60 62 64 66 68 70 72 74 76 78 80 82 84 86 88 90 92 94 96 98 100 102 104 106 108 110 112 114 116 118 120 122 124 126 128 130 132 134 136 138 140 142 144 146 148 150 152 154 156 158 160 162 164 166 168 170 172 174 176 178 180 182 184 186 188 190 192 194 196 198 200 </DataArray>
<DataArray  type="UInt8"  Name="types"  format="ascii">3 3 3 3 3 3 3 3 3 3 3 3 3 3 3 3 3 3 3 3 3 3 3 3 3 3 3 3 3 3 3 3 3 3 3 3 3 3 3 3 3 3 3 3 3 3 3 3 3 3 3 3 3 3 3 3 3 3 3 3 3 3 3 3 3 3 3 3 3 3 3 3 3 3 3 3 3 3 3 3 3 3 3 3 3 3 3 3 3 3 3 3 3 3 3 3 3 3 3 3 </DataArray>
</Cells>
<PointData  Scalars="f_13"> 
<DataArray  type="Float64"  Name="f_13"  format="ascii">6.3997020030306185e+03  6.4253722328361364e+03  6.4694388501909516e+03  6.5319472349160060e+03  6.6129954437312126e+03  6.7127333384681697e+03  6.8313617440102025e+03  6.9691316483915652e+03  7.1263434531690464e+03  7.3033462795319701e+03  7.5005373336606044e+03  7.7183613331048091e+03  7.9573099942467597e+03  8.2179215791956540e+03  8.5007804987685795e+03  8.8065169665926551e+03  9.1358066978697407e+03  9.4893706450147547e+03  9.8679747612347564e+03  1.0272429782166269e+04  1.0703591014929369e+04  1.1162358123376247e+04  1.1649674897891724e+04  1.2166528997822918e+04  1.2713951654454480e+04  1.3293017322384150e+04  1.3904843267173484e+04  1.4550589077235401e+04  1.5231456088061408e+04  1.5948686707078466e+04  1.6703563627652205e+04  1.7497408921016264e+04  1.8331582995206605e+04  1.9207483410415080e+04  2.0126543540552382e+04  2.1090231071230253e+04  2.2100046324842635e+04  2.3157520403951141e+04  2.4264213144768899e+04  2.5421710873194977e+04  2.6631623956586413e+04  2.7895584145272718e+04  2.9215241698724265e+04  3.0592262292286225e+04  3.2028323701487632e+04  3.3525112262132490e+04  3.5084319105677299e+04  3.6707636170795202e+04  3.8396751993516809e+04  4.0153347279914036e+04  4.1979090266946318e+04  4.3875631878802931e+04  4.5844600687832841e+04  4.7887597690931114e+04  5.0006190914019324e+04  5.2201909858982675e+04  5.4476239809067731e+04  5.6830616010253681e+04  5.9266417747433639e+04  6.1784962335315780e+04  6.4387499044710443e+04  6.7075202985226148e+04  6.9849168965272780e+04  7.2710405349567140e+04  7.5659827932955552e+04  7.8698253847202883e+04  8.1826395514336633e+04  8.5044854656065276e+04  8.8354116363599649e+04  9.1754543225788992e+04  9.5246369505739858e+04  9.8829695346937966e+04  1.0250448097928333e+05  1.0627054088335308e+05  1.1012753785764896e+05  1.1407497691864558e+05  1.1811219894728473e+05  1.2223837397840105e+05  1.2645249401176405e+05  1.3075336520545094e+05  1.3513959929473916e+05  1.3960960406339169e+05  1.4416157268003898e+05  1.4879347170143531e+05  1.5350302753794141e+05  1.5828771117604894e+05  1.6314472095957850e+05  1.6807096324683324e+05  1.7306303078684656e+05  1.7811717869506436e+05  1.8322929795807463e+05  1.8839488645846836e+05  1.9360901758393910e+05  1.9886630656776813e+05  2.0416087479853866e+05  2.0948631243246599e+05  2.1483563973985318e+05  2.2020126771813323e+05  2.2557495861411863e+05  2.3094778713616924e+05  2.3631010334421776e+05  </DataArray> 
</PointData> 
</Piece>
</UnstructuredGrid>
</VTKFile>