<?xml version="1.0"?>
<VTKFile type="UnstructuredGrid"  version="0.1"  >
<UnstructuredGrid>
<Piece  NumberOfPoints="101" NumberOfCells="100">
<Points>
<DataArray  type="Float64"  NumberOfComponents="3"  format="ascii">0 0 0  0.01 0 0  0.02 0 0  0.03 0 0  0.04 0 0  0.05 0 0  0.06 0 0  0.07000000000000001 0 0  0.08 0 0  0.09 0 0  0.1 0 0  0.11 0 0  0.12 0 0  0.13 0 0  0.14 0 0  0.15 0 0  0.16 0 0  0.17 0 0  0.18 0 0  0.19 0 0  0.2 0 0  0.21 0 0  0.22 0 0  0.23 0 0  0.24 0 0  0.25 0 0  0.26 0 0  0.27 0 0  0.28 0 0  0.29 0 0  0.3 0 0  0.31 0 0  0.32 0 0  0.33 0 0  0.34 0 0  0.35 0 0  0.36 0 0  0.37 0 0  0.38 0 0  0.39 0 0  0.4 0 0  0.41 0 0  0.42 0 0  0.43 0 0  0.44 0 0  0.45 0 0  0.46 0 0  0.47 0 0  0.48 0 0  0.49 0 0  0.5 0 0  0.51 0 0  0.52 0 0  0.53 0 0  0.54 0 0  0.55 0 0  0.5600000000000001 0 0  0.57 0 0  0.58 0 0  0.59 0 0  0.6 0 0  0.61 0 0  0.62 0 0  0.63 0 0  0.64 0 0  0.65 0 0  0.66 0 0  0.67 0 0  0.68 0 0  0.6899999999999999 0 0  0.7 0 0  0.71 0 0  0.72 0 0  0.73 0 0  0.74 0 0  0.75 0 0  0.76 0 0  0.77 0 0  0.78 0 0  0.79 0 0  0.8 0 0  0.8100000000000001 0 0  0.82 0 0  0.83 0 0  0.84 0 0  0.85 0 0  0.86 0 0  0.87 0 0  0.88 0 0  0.89 0 0  0.9 0 0  0.91 0 0  0.92 0 0  0.93 0 0  0.9399999999999999 0 0  0.95 0 0  0.96 0 0  0.97 0 0  0.98 0 0  0.99 0 0  1 0 0  </DataArray>
</Points>
<Cells>
<DataArray  type="UInt32"  Name="connectivity"  format="ascii">0 1  1 2  2 3  3 4  4 5  5 6  6 7  7 8  8 9  9 10  10 11  11 12  12 13  13 14  14 15  15 16  16 17  17 18  18 19  19 20  20 21  21 22  22 23  23 24  24 25  25 26  26 27  27 28  28 29  29 30  30 31  31 32  32 33  33 34  34 35  35 36  36 37  37 38  38 39  39 40  40 41  41 42  42 43  43 44  44 45  45 46  46 47  47 48  48 49  49 50  50 51  51 52  52 53  53 54  54 55  55 56  56 57  57 58  58 59  59 60  60 61  61 62  62 63  63 64  64 65  65 66  66 67  67 68  68 69  69 70  70 71  71 72  72 73  73 74  74 75  75 76  76 77  77 78  78 79  79 80  80 81  81 82  82 83  83 84  84 85  85 86  86 87  87 88  88 89  89 90  90 91  91 92  92 93  93 94  94 95  95 96  96 97  97 98  98 99  99 100  </DataArray>
<DataArray  type="UInt32"  Name="offsets"  format="ascii">2 4 6 8 10 12 14 16 18 20 22 24 26 28 30 32 34 36 38 40 42 44 46 48 50 52 54 56 58 60 62 64 66 68 70 72 74 76 78 80 82 84 86 88 90 92 94 96 98 100 102 104 106 108 110 112 114 116 118 120 122 124 126 128 130 132 134 136 138 140 142 144 146 148 150 152 154 156 158 160 162 164 166 168 170 172 174 176 178 180 182 184 186 188 190 192 194 196 198 200 </DataArray>
<DataArray  type="UInt8"  Name="types"  format="ascii">3 3 3 3 3 3 3 3 3 3 3 3 3 3 3 3 3 3 3 3 3 3 3 3 3 3 3 3 3 3 3 3 3 3 3 3 3 3 3 3 3 3 3 3 3 3 3 3 3 3 3 3 3 3 3 3 3 3 3 3 3 3 3 3 3 3 3 3 3 3 3 3 3 3 3 3 3 3 3 3 3 3 3 3 3 3 3 3 3 3 3 3 3 3 3 3 3 3 3 3 </DataArray>
</Cells>
<PointData  Scalars="f_13"> 
<DataArray  type="Float64"  Name="f_13"  format="ascii">9.6269074105544939e+02  9.6497842966058408e+02  9.6770886106212004e+02  9.7080720768499771e+02  9.7421531918089693e+02  9.7788878586410090e+02  9.8179455122579157e+02  9.8590897101348924e+02  9.9021623657324983e+02  9.9470709609918458e+02  9.9937782007699218e+02  1.0042293672849596e+03  1.0092667157943790e+03  1.0144983299253045e+03  1.0199357393948302e+03  1.0255932111980160e+03  1.0314874982822503e+03  1.0376376519663179e+03  1.0440648874347232e+03  1.0507924935999390e+03  1.0578457802452472e+03  1.0652520566992112e+03  1.0730406373987887e+03  1.0812428706120459e+03  1.0898921873467175e+03  1.0990241680951456e+03  1.1086766255824575e+03  1.1188897021124742e+03  1.1297059804608004e+03  1.1411706075602553e+03  1.1533314304714409e+03  1.1662391443400877e+03  1.1799474522206060e+03  1.1945132367983822e+03  1.2099967441770725e+03  1.2264617800158217e+03  1.2439759184085265e+03  1.2626107239959197e+03  1.2824419878937697e+03  1.3035499781088272e+03  1.3260197051999146e+03  1.3499412040260631e+03  1.3754098325078987e+03  1.4025265884134492e+03  1.4313984452658649e+03  1.4621387085587801e+03  1.4948673935555878e+03  1.5297116260420985e+03  1.5668060674980641e+03  1.6062933662519706e+03  1.6483246362853336e+03  1.6930599654572568e+03  1.7406689550270180e+03  1.7913312924614045e+03  1.8452373596238231e+03  1.9025888785529594e+03  1.9635995971487778e+03  2.0284960171914165e+03  2.0975181672220901e+03  2.1709204229118891e+03  2.2489723776312530e+03  2.3319597660057129e+03  2.4201854432971436e+03  2.5139704234777373e+03  2.6136549788578664e+03  2.7195998040786758e+03  2.8321872471724196e+03  2.9518226102118747e+03  3.0789355217939178e+03  3.2139813832057253e+03  3.3574428895727378e+03  3.5098316265452549e+03  3.6716897420953401e+03  3.8435916917054737e+03  4.0261460535585429e+03  4.2199974081906821e+03  4.4258282743280224e+03  4.6443610891530398e+03  4.8763602168616962e+03  5.1226339638663203e+03  5.3840365721123817e+03  5.6614701533954112e+03  5.9558865169055625e+03  6.2682888290287137e+03  6.5997330281330942e+03  6.9513288969883442e+03  7.3242406707717610e+03  7.7196870283071248e+03  8.1389402770238939e+03  8.5833244966094517e+03  9.0542123505945110e+03  9.5530202068568778e+03  1.0081201124378944e+04  1.0640235160946846e+04  1.1231616330289400e+04  1.1856835381657553e+04  1.2517357382692728e+04  1.3214592848228111e+04  1.3949860861362858e+04  1.4724342263293589e+04  1.5539020525179067e+04  </DataArray> 
</PointData> 
</Piece>
</UnstructuredGrid>
</VTKFile>