<?xml version="1.0"?>
<VTKFile type="UnstructuredGrid"  version="0.1"  >
<UnstructuredGrid>
<Piece  NumberOfPoints="101" NumberOfCells="100">
<Points>
<DataArray  type="Float64"  NumberOfComponents="3"  format="ascii">0 0 0  0.01 0 0  0.02 0 0  0.03 0 0  0.04 0 0  0.05 0 0  0.06 0 0  0.07000000000000001 0 0  0.08 0 0  0.09 0 0  0.1 0 0  0.11 0 0  0.12 0 0  0.13 0 0  0.14 0 0  0.15 0 0  0.16 0 0  0.17 0 0  0.18 0 0  0.19 0 0  0.2 0 0  0.21 0 0  0.22 0 0  0.23 0 0  0.24 0 0  0.25 0 0  0.26 0 0  0.27 0 0  0.28 0 0  0.29 0 0  0.3 0 0  0.31 0 0  0.32 0 0  0.33 0 0  0.34 0 0  0.35 0 0  0.36 0 0  0.37 0 0  0.38 0 0  0.39 0 0  0.4 0 0  0.41 0 0  0.42 0 0  0.43 0 0  0.44 0 0  0.45 0 0  0.46 0 0  0.47 0 0  0.48 0 0  0.49 0 0  0.5 0 0  0.51 0 0  0.52 0 0  0.53 0 0  0.54 0 0  0.55 0 0  0.5600000000000001 0 0  0.57 0 0  0.58 0 0  0.59 0 0  0.6 0 0  0.61 0 0  0.62 0 0  0.63 0 0  0.64 0 0  0.65 0 0  0.66 0 0  0.67 0 0  0.68 0 0  0.6899999999999999 0 0  0.7 0 0  0.71 0 0  0.72 0 0  0.73 0 0  0.74 0 0  0.75 0 0  0.76 0 0  0.77 0 0  0.78 0 0  0.79 0 0  0.8 0 0  0.8100000000000001 0 0  0.82 0 0  0.83 0 0  0.84 0 0  0.85 0 0  0.86 0 0  0.87 0 0  0.88 0 0  0.89 0 0  0.9 0 0  0.91 0 0  0.92 0 0  0.93 0 0  0.9399999999999999 0 0  0.95 0 0  0.96 0 0  0.97 0 0  0.98 0 0  0.99 0 0  1 0 0  </DataArray>
</Points>
<Cells>
<DataArray  type="UInt32"  Name="connectivity"  format="ascii">0 1  1 2  2 3  3 4  4 5  5 6  6 7  7 8  8 9  9 10  10 11  11 12  12 13  13 14  14 15  15 16  16 17  17 18  18 19  19 20  20 21  21 22  22 23  23 24  24 25  25 26  26 27  27 28  28 29  29 30  30 31  31 32  32 33  33 34  34 35  35 36  36 37  37 38  38 39  39 40  40 41  41 42  42 43  43 44  44 45  45 46  46 47  47 48  48 49  49 50  50 51  51 52  52 53  53 54  54 55  55 56  56 57  57 58  58 59  59 60  60 61  61 62  62 63  63 64  64 65  65 66  66 67  67 68  68 69  69 70  70 71  71 72  72 73  73 74  74 75  75 76  76 77  77 78  78 79  79 80  80 81  81 82  82 83  83 84  84 85  85 86  86 87  87 88  88 89  89 90  90 91  91 92  92 93  93 94  94 95  95 96  96 97  97 98  98 99  99 100  </DataArray>
<DataArray  type="UInt32"  Name="offsets"  format="ascii">2 4 6 8 10 12 14 16 18 20 22 24 26 28 30 32 34 36 38 40 42 44 46 48 50 52 54 56 58 60 62 64 66 68 70 72 74 76 78 80 82 84 86 88 90 92 94 96 98 100 102 104 106 108 110 112 114 116 118 120 122 124 126 128 130 132 134 136 138 140 142 144 146 148 150 152 154 156 158 160 162 164 166 168 170 172 174 176 178 180 182 184 186 188 190 192 194 196 198 200 </DataArray>
<DataArray  type="UInt8"  Name="types"  format="ascii">3 3 3 3 3 3 3 3 3 3 3 3 3 3 3 3 3 3 3 3 3 3 3 3 3 3 3 3 3 3 3 3 3 3 3 3 3 3 3 3 3 3 3 3 3 3 3 3 3 3 3 3 3 3 3 3 3 3 3 3 3 3 3 3 3 3 3 3 3 3 3 3 3 3 3 3 3 3 3 3 3 3 3 3 3 3 3 3 3 3 3 3 3 3 3 3 3 3 3 3 </DataArray>
</Cells>
<PointData  Scalars="f_13"> 
<DataArray  type="Float64"  Name="f_13"  format="ascii">1.0004122090687558e+03  1.0130595998533184e+03  1.0265349702707581e+03  1.0407706722884457e+03  1.0557214574765590e+03  1.0713610611991094e+03  1.0876794655550502e+03  1.1046806876246310e+03  1.1223809809718216e+03  1.1408073681052399e+03  1.1599964429015345e+03  1.1799933972111701e+03  1.2008512367348840e+03  1.2226301590469957e+03  1.2453970722655085e+03  1.2692252369847427e+03  1.2941940171593001e+03  1.3203887279845244e+03  1.3479005706839855e+03  1.3768266456429785e+03  1.4072700366223064e+03  1.4393399599174356e+03  1.4731519733393618e+03  1.5088282408142090e+03  1.5464978492473676e+03  1.5862971750870627e+03  1.6283702987599506e+03  1.6728694658438706e+03  1.7199555944953345e+03  1.7697988292664852e+03  1.8225791420327964e+03  1.8784869813136438e+03  1.9377239718082035e+03  2.0005036664943170e+03  2.0670523541536490e+03  2.1376099256984530e+03  2.2124308031894780e+03  2.2917849359570296e+03  2.3759588687740311e+03  2.4652568875872107e+03  2.5600022488964773e+03  2.6605384994892233e+03  2.7672308938919914e+03  2.8804679176027457e+03  3.0006629249191524e+03  3.1282559009878751e+03  3.2637153585729707e+03  3.4075403809839213e+03  3.5602628236212072e+03  3.7224496876947665e+03  3.8947056808527445e+03  4.0776759807281346e+03  4.2720492187716354e+03  4.4785607031908685e+03  4.6979959013574071e+03  4.9311942036692635e+03  5.1790529925591873e+03  5.4425320421053366e+03  5.7226582755114568e+03  6.0205309095522889e+03  6.3373270168913477e+03  6.6743075389259484e+03  7.0328237834395468e+03  7.4143244427690979e+03  7.8203631693322213e+03  8.2526067460910599e+03  8.7128438897172055e+03  9.2029947236969419e+03  9.7251209571770032e+03  1.0281436802759807e+04  1.0874320662432810e+04  1.1506327605031322e+04  1.2180202650707215e+04  1.2898894867367673e+04  1.3665572270454515e+04  1.4483637500179006e+04  1.5356744228752732e+04  1.6288814223515094e+04  1.7284054959301855e+04  1.8346977633955918e+04  1.9482415393435429e+04  2.0695541516229187e+04  2.1991887239219381e+04  2.3377358826906551e+04  2.4858253390789323e+04  2.6441272852865382e+04  2.8133535313090801e+04  2.9942582920497756e+04  3.1876385155258842e+04  3.3943336195838223e+04  3.6152244759944151e+04  3.8512314454443564e+04  4.1033112225871744e+04  4.3724521939517901e+04  4.6596679389700570e+04  4.9659884099494702e+04  5.2924482026188241e+04  5.6400711641489826e+04  6.0098503656195848e+04  6.4027221708294768e+04  6.8195327361658885e+04  </DataArray> 
</PointData> 
</Piece>
</UnstructuredGrid>
</VTKFile>