<?xml version="1.0"?>
<VTKFile type="UnstructuredGrid"  version="0.1"  >
<UnstructuredGrid>
<Piece  NumberOfPoints="101" NumberOfCells="100">
<Points>
<DataArray  type="Float64"  NumberOfComponents="3"  format="ascii">0 0 0  0.01 0 0  0.02 0 0  0.03 0 0  0.04 0 0  0.05 0 0  0.06 0 0  0.07000000000000001 0 0  0.08 0 0  0.09 0 0  0.1 0 0  0.11 0 0  0.12 0 0  0.13 0 0  0.14 0 0  0.15 0 0  0.16 0 0  0.17 0 0  0.18 0 0  0.19 0 0  0.2 0 0  0.21 0 0  0.22 0 0  0.23 0 0  0.24 0 0  0.25 0 0  0.26 0 0  0.27 0 0  0.28 0 0  0.29 0 0  0.3 0 0  0.31 0 0  0.32 0 0  0.33 0 0  0.34 0 0  0.35 0 0  0.36 0 0  0.37 0 0  0.38 0 0  0.39 0 0  0.4 0 0  0.41 0 0  0.42 0 0  0.43 0 0  0.44 0 0  0.45 0 0  0.46 0 0  0.47 0 0  0.48 0 0  0.49 0 0  0.5 0 0  0.51 0 0  0.52 0 0  0.53 0 0  0.54 0 0  0.55 0 0  0.5600000000000001 0 0  0.57 0 0  0.58 0 0  0.59 0 0  0.6 0 0  0.61 0 0  0.62 0 0  0.63 0 0  0.64 0 0  0.65 0 0  0.66 0 0  0.67 0 0  0.68 0 0  0.6899999999999999 0 0  0.7 0 0  0.71 0 0  0.72 0 0  0.73 0 0  0.74 0 0  0.75 0 0  0.76 0 0  0.77 0 0  0.78 0 0  0.79 0 0  0.8 0 0  0.8100000000000001 0 0  0.82 0 0  0.83 0 0  0.84 0 0  0.85 0 0  0.86 0 0  0.87 0 0  0.88 0 0  0.89 0 0  0.9 0 0  0.91 0 0  0.92 0 0  0.93 0 0  0.9399999999999999 0 0  0.95 0 0  0.96 0 0  0.97 0 0  0.98 0 0  0.99 0 0  1 0 0  </DataArray>
</Points>
<Cells>
<DataArray  type="UInt32"  Name="connectivity"  format="ascii">0 1  1 2  2 3  3 4  4 5  5 6  6 7  7 8  8 9  9 10  10 11  11 12  12 13  13 14  14 15  15 16  16 17  17 18  18 19  19 20  20 21  21 22  22 23  23 24  24 25  25 26  26 27  27 28  28 29  29 30  30 31  31 32  32 33  33 34  34 35  35 36  36 37  37 38  38 39  39 40  40 41  41 42  42 43  43 44  44 45  45 46  46 47  47 48  48 49  49 50  50 51  51 52  52 53  53 54  54 55  55 56  56 57  57 58  58 59  59 60  60 61  61 62  62 63  63 64  64 65  65 66  66 67  67 68  68 69  69 70  70 71  71 72  72 73  73 74  74 75  75 76  76 77  77 78  78 79  79 80  80 81  81 82  82 83  83 84  84 85  85 86  86 87  87 88  88 89  89 90  90 91  91 92  92 93  93 94  94 95  95 96  96 97  97 98  98 99  99 100  </DataArray>
<DataArray  type="UInt32"  Name="offsets"  format="ascii">2 4 6 8 10 12 14 16 18 20 22 24 26 28 30 32 34 36 38 40 42 44 46 48 50 52 54 56 58 60 62 64 66 68 70 72 74 76 78 80 82 84 86 88 90 92 94 96 98 100 102 104 106 108 110 112 114 116 118 120 122 124 126 128 130 132 134 136 138 140 142 144 146 148 150 152 154 156 158 160 162 164 166 168 170 172 174 176 178 180 182 184 186 188 190 192 194 196 198 200 </DataArray>
<DataArray  type="UInt8"  Name="types"  format="ascii">3 3 3 3 3 3 3 3 3 3 3 3 3 3 3 3 3 3 3 3 3 3 3 3 3 3 3 3 3 3 3 3 3 3 3 3 3 3 3 3 3 3 3 3 3 3 3 3 3 3 3 3 3 3 3 3 3 3 3 3 3 3 3 3 3 3 3 3 3 3 3 3 3 3 3 3 3 3 3 3 3 3 3 3 3 3 3 3 3 3 3 3 3 3 3 3 3 3 3 3 </DataArray>
</Cells>
<PointData  Scalars="f_13"> 
<DataArray  type="Float64"  Name="f_13"  format="ascii">9.7737835403355166e+02  9.8491867890055516e+02  9.9217522284625829e+02  9.9924191354575191e+02  1.0062025176055799e+03  1.0131322651365570e+03  1.0200992343695605e+03  1.0271655420669201e+03  1.0343883762586304e+03  1.0418209003453278e+03  1.0495130516013965e+03  1.0575122523432044e+03  1.0658640482836190e+03  1.0746126856839926e+03  1.0838016366738609e+03  1.0934740803967443e+03  1.1036733463412195e+03  1.1144433252344816e+03  1.1258288521342522e+03  1.1378760657933740e+03  1.1506327479425272e+03  1.1641486458040413e+03  1.1784757808865998e+03  1.1936687468967236e+03  1.2097849994238552e+03  1.2268851399014914e+03  1.2450331962102334e+03  1.2642969021652848e+03  1.2847479780179965e+03  1.3064624139968996e+03  1.3295207588174280e+03  1.3540084150008975e+03  1.3800159427622602e+03  1.4076393741528407e+03  1.4369805390789090e+03  1.4681474047598410e+03  1.5012544301409400e+03  1.5364229367360585e+03  1.5737814973441352e+03  1.6134663440619295e+03  1.6556217970028995e+03  1.7004007151296646e+03  1.7479649706153771e+03  1.7984859481681804e+03  1.8521450707836964e+03  1.9091343534342188e+03  1.9696569862614788e+03  2.0339279489142800e+03  2.1021746577652598e+03  2.1746376478552361e+03  2.2515712915524896e+03  2.3332445560818469e+03  2.4199418022794721e+03  2.5119636271694667e+03  2.6096277532444169e+03  2.7132699676716888e+03  2.8232451150495690e+03  2.9399281478126800e+03  3.0637152389463890e+03  3.1950249623287646e+03  3.3342995467915330e+03  3.4820062108958446e+03  3.6386385864742497e+03  3.8047182402191283e+03  3.9807963040246191e+03  4.1674552264412787e+03  4.3653106595107429e+03  4.5750134974452458e+03  4.7972520861411067e+03  5.0327546254073050e+03  5.2822917890949630e+03  5.5466795920808117e+03  5.8267825373425367e+03  6.1235170812270326e+03  6.4378554605225709e+03  6.7708299311793444e+03  7.1235374755677385e+03  7.4971450431215571e+03  7.8928953982037301e+03  8.3121136591975628e+03  8.7562146243405714e+03  9.2267109928941099e+03  9.7252226051468479e+03  1.0253486841820259e+04  1.0813370343106675e+04  1.1406882230371537e+04  1.2036189040189181e+04  1.2703631611750907e+04  1.3411744205927977e+04  1.4163276178847083e+04  1.4961216586588635e+04  1.5808822162878547e+04  1.6709649191330973e+04  1.7667589891544510e+04  1.8686914058640770e+04  1.9772316844150439e+04  2.0928973749156212e+04  2.2162604126302402e+04  2.3479544765212540e+04  2.4886835477276156e+04  2.6392319013842360e+04  </DataArray> 
</PointData> 
</Piece>
</UnstructuredGrid>
</VTKFile>