<?xml version="1.0"?>
<VTKFile type="UnstructuredGrid"  version="0.1"  >
<UnstructuredGrid>
<Piece  NumberOfPoints="101" NumberOfCells="100">
<Points>
<DataArray  type="Float64"  NumberOfComponents="3"  format="ascii">0 0 0  0.01 0 0  0.02 0 0  0.03 0 0  0.04 0 0  0.05 0 0  0.06 0 0  0.07000000000000001 0 0  0.08 0 0  0.09 0 0  0.1 0 0  0.11 0 0  0.12 0 0  0.13 0 0  0.14 0 0  0.15 0 0  0.16 0 0  0.17 0 0  0.18 0 0  0.19 0 0  0.2 0 0  0.21 0 0  0.22 0 0  0.23 0 0  0.24 0 0  0.25 0 0  0.26 0 0  0.27 0 0  0.28 0 0  0.29 0 0  0.3 0 0  0.31 0 0  0.32 0 0  0.33 0 0  0.34 0 0  0.35 0 0  0.36 0 0  0.37 0 0  0.38 0 0  0.39 0 0  0.4 0 0  0.41 0 0  0.42 0 0  0.43 0 0  0.44 0 0  0.45 0 0  0.46 0 0  0.47 0 0  0.48 0 0  0.49 0 0  0.5 0 0  0.51 0 0  0.52 0 0  0.53 0 0  0.54 0 0  0.55 0 0  0.5600000000000001 0 0  0.57 0 0  0.58 0 0  0.59 0 0  0.6 0 0  0.61 0 0  0.62 0 0  0.63 0 0  0.64 0 0  0.65 0 0  0.66 0 0  0.67 0 0  0.68 0 0  0.6899999999999999 0 0  0.7 0 0  0.71 0 0  0.72 0 0  0.73 0 0  0.74 0 0  0.75 0 0  0.76 0 0  0.77 0 0  0.78 0 0  0.79 0 0  0.8 0 0  0.8100000000000001 0 0  0.82 0 0  0.83 0 0  0.84 0 0  0.85 0 0  0.86 0 0  0.87 0 0  0.88 0 0  0.89 0 0  0.9 0 0  0.91 0 0  0.92 0 0  0.93 0 0  0.9399999999999999 0 0  0.95 0 0  0.96 0 0  0.97 0 0  0.98 0 0  0.99 0 0  1 0 0  </DataArray>
</Points>
<Cells>
<DataArray  type="UInt32"  Name="connectivity"  format="ascii">0 1  1 2  2 3  3 4  4 5  5 6  6 7  7 8  8 9  9 10  10 11  11 12  12 13  13 14  14 15  15 16  16 17  17 18  18 19  19 20  20 21  21 22  22 23  23 24  24 25  25 26  26 27  27 28  28 29  29 30  30 31  31 32  32 33  33 34  34 35  35 36  36 37  37 38  38 39  39 40  40 41  41 42  42 43  43 44  44 45  45 46  46 47  47 48  48 49  49 50  50 51  51 52  52 53  53 54  54 55  55 56  56 57  57 58  58 59  59 60  60 61  61 62  62 63  63 64  64 65  65 66  66 67  67 68  68 69  69 70  70 71  71 72  72 73  73 74  74 75  75 76  76 77  77 78  78 79  79 80  80 81  81 82  82 83  83 84  84 85  85 86  86 87  87 88  88 89  89 90  90 91  91 92  92 93  93 94  94 95  95 96  96 97  97 98  98 99  99 100  </DataArray>
<DataArray  type="UInt32"  Name="offsets"  format="ascii">2 4 6 8 10 12 14 16 18 20 22 24 26 28 30 32 34 36 38 40 42 44 46 48 50 52 54 56 58 60 62 64 66 68 70 72 74 76 78 80 82 84 86 88 90 92 94 96 98 100 102 104 106 108 110 112 114 116 118 120 122 124 126 128 130 132 134 136 138 140 142 144 146 148 150 152 154 156 158 160 162 164 166 168 170 172 174 176 178 180 182 184 186 188 190 192 194 196 198 200 </DataArray>
<DataArray  type="UInt8"  Name="types"  format="ascii">3 3 3 3 3 3 3 3 3 3 3 3 3 3 3 3 3 3 3 3 3 3 3 3 3 3 3 3 3 3 3 3 3 3 3 3 3 3 3 3 3 3 3 3 3 3 3 3 3 3 3 3 3 3 3 3 3 3 3 3 3 3 3 3 3 3 3 3 3 3 3 3 3 3 3 3 3 3 3 3 3 3 3 3 3 3 3 3 3 3 3 3 3 3 3 3 3 3 3 3 </DataArray>
</Cells>
<PointData  Scalars="f_13"> 
<DataArray  type="Float64"  Name="f_13"  format="ascii">9.8546639952692840e+02  9.8771237710302739e+02  9.9023188120093153e+02  9.9305122326702565e+02  9.9618698368223795e+02  9.9964944899144723e+02  1.0034451372863117e+03  1.0075786402798079e+03  1.0120539569450449e+03  1.0168754516571821e+03  1.0220485372745707e+03  1.0275801585913584e+03  1.0334791324946048e+03  1.0397563866683167e+03  1.0464251277639723e+03  1.0535009617753540e+03  1.0610019832647531e+03  1.0689488455809058e+03  1.0773648208946317e+03  1.0862758564554695e+03  1.0957106317128303e+03  1.1057006196753989e+03  1.1162801549728329e+03  1.1274865104375283e+03  1.1393599835696652e+03  1.1519439939332076e+03  1.1652851923155179e+03  1.1794335823407789e+03  1.1944426551372846e+03  1.2103695376063858e+03  1.2272751548160675e+03  1.2452244070373895e+03  1.2642863619521022e+03  1.2845344625808266e+03  1.3060467515106182e+03  1.3289061120364647e+03  1.3532005268718606e+03  1.3790233551278529e+03  1.4064736283069747e+03  1.4356563661074140e+03  1.4666829128829334e+03  1.4996712956547258e+03  1.5347466046219174e+03  1.5720413971670873e+03  1.6116961264012657e+03  1.6538595953386007e+03  1.6986894378334696e+03  1.7463526274513254e+03  1.7970260154781085e+03  1.8508968993005667e+03  1.9081636224102288e+03  1.9690362072958765e+03  2.0337370224919025e+03  2.1025014850415669e+03  2.1755787996134623e+03  2.2532327354749295e+03  2.3357424424761894e+03  2.4234033071319054e+03  2.5165278498010780e+03  2.6154466638598783e+03  2.7205093976335402e+03  2.8320857797009608e+03  2.9505666880076283e+03  3.0763652630172728e+03  3.2099180648988490e+03  3.3516862744819750e+03  3.5021569374200230e+03  3.6618442506755146e+03  3.8312908900880529e+03  4.0110693774026399e+03  4.2017834847297509e+03  4.4040696739843479e+03  4.6185985684197331e+03  4.8460764529495582e+03  5.0872467995619782e+03  5.3428918138096742e+03  5.6138339981611553e+03  5.9009377279988812e+03  6.2051108363584726e+03  6.5273062042775464e+03  6.8685233550849625e+03  7.2298100534242221e+03  7.6122639137051892e+03  8.0170340286225737e+03  8.4453226372036243e+03  8.8983868646972551e+03  9.3775405850524985e+03  9.8841564828684004e+03  1.0419668428372219e+04  1.0985574329998048e+04  1.1583439699544293e+04  1.2214902261354915e+04  1.2881678068247289e+04  1.3585569764405604e+04  1.4328477873938240e+04  1.5112416312234300e+04  1.5939533739838631e+04  1.6812142935878335e+04  1.7732761098413510e+04  1.8704164929908762e+04  1.9729465595422647e+04  </DataArray> 
</PointData> 
</Piece>
</UnstructuredGrid>
</VTKFile>