<?xml version="1.0"?>
<VTKFile type="UnstructuredGrid"  version="0.1"  >
<UnstructuredGrid>
<Piece  NumberOfPoints="101" NumberOfCells="100">
<Points>
<DataArray  type="Float64"  NumberOfComponents="3"  format="ascii">0 0 0  0.01 0 0  0.02 0 0  0.03 0 0  0.04 0 0  0.05 0 0  0.06 0 0  0.07000000000000001 0 0  0.08 0 0  0.09 0 0  0.1 0 0  0.11 0 0  0.12 0 0  0.13 0 0  0.14 0 0  0.15 0 0  0.16 0 0  0.17 0 0  0.18 0 0  0.19 0 0  0.2 0 0  0.21 0 0  0.22 0 0  0.23 0 0  0.24 0 0  0.25 0 0  0.26 0 0  0.27 0 0  0.28 0 0  0.29 0 0  0.3 0 0  0.31 0 0  0.32 0 0  0.33 0 0  0.34 0 0  0.35 0 0  0.36 0 0  0.37 0 0  0.38 0 0  0.39 0 0  0.4 0 0  0.41 0 0  0.42 0 0  0.43 0 0  0.44 0 0  0.45 0 0  0.46 0 0  0.47 0 0  0.48 0 0  0.49 0 0  0.5 0 0  0.51 0 0  0.52 0 0  0.53 0 0  0.54 0 0  0.55 0 0  0.5600000000000001 0 0  0.57 0 0  0.58 0 0  0.59 0 0  0.6 0 0  0.61 0 0  0.62 0 0  0.63 0 0  0.64 0 0  0.65 0 0  0.66 0 0  0.67 0 0  0.68 0 0  0.6899999999999999 0 0  0.7 0 0  0.71 0 0  0.72 0 0  0.73 0 0  0.74 0 0  0.75 0 0  0.76 0 0  0.77 0 0  0.78 0 0  0.79 0 0  0.8 0 0  0.8100000000000001 0 0  0.82 0 0  0.83 0 0  0.84 0 0  0.85 0 0  0.86 0 0  0.87 0 0  0.88 0 0  0.89 0 0  0.9 0 0  0.91 0 0  0.92 0 0  0.93 0 0  0.9399999999999999 0 0  0.95 0 0  0.96 0 0  0.97 0 0  0.98 0 0  0.99 0 0  1 0 0  </DataArray>
</Points>
<Cells>
<DataArray  type="UInt32"  Name="connectivity"  format="ascii">0 1  1 2  2 3  3 4  4 5  5 6  6 7  7 8  8 9  9 10  10 11  11 12  12 13  13 14  14 15  15 16  16 17  17 18  18 19  19 20  20 21  21 22  22 23  23 24  24 25  25 26  26 27  27 28  28 29  29 30  30 31  31 32  32 33  33 34  34 35  35 36  36 37  37 38  38 39  39 40  40 41  41 42  42 43  43 44  44 45  45 46  46 47  47 48  48 49  49 50  50 51  51 52  52 53  53 54  54 55  55 56  56 57  57 58  58 59  59 60  60 61  61 62  62 63  63 64  64 65  65 66  66 67  67 68  68 69  69 70  70 71  71 72  72 73  73 74  74 75  75 76  76 77  77 78  78 79  79 80  80 81  81 82  82 83  83 84  84 85  85 86  86 87  87 88  88 89  89 90  90 91  91 92  92 93  93 94  94 95  95 96  96 97  97 98  98 99  99 100  </DataArray>
<DataArray  type="UInt32"  Name="offsets"  format="ascii">2 4 6 8 10 12 14 16 18 20 22 24 26 28 30 32 34 36 38 40 42 44 46 48 50 52 54 56 58 60 62 64 66 68 70 72 74 76 78 80 82 84 86 88 90 92 94 96 98 100 102 104 106 108 110 112 114 116 118 120 122 124 126 128 130 132 134 136 138 140 142 144 146 148 150 152 154 156 158 160 162 164 166 168 170 172 174 176 178 180 182 184 186 188 190 192 194 196 198 200 </DataArray>
<DataArray  type="UInt8"  Name="types"  format="ascii">3 3 3 3 3 3 3 3 3 3 3 3 3 3 3 3 3 3 3 3 3 3 3 3 3 3 3 3 3 3 3 3 3 3 3 3 3 3 3 3 3 3 3 3 3 3 3 3 3 3 3 3 3 3 3 3 3 3 3 3 3 3 3 3 3 3 3 3 3 3 3 3 3 3 3 3 3 3 3 3 3 3 3 3 3 3 3 3 3 3 3 3 3 3 3 3 3 3 3 3 </DataArray>
</Cells>
<PointData  Scalars="f_13"> 
<DataArray  type="Float64"  Name="f_13"  format="ascii">1.0125392924057792e+03  1.0134591403682812e+03  1.0141814172837743e+03  1.0147217319870912e+03  1.0150963560303042e+03  1.0153216995671868e+03  1.0154139192790186e+03  1.0153886358622142e+03  1.0152607395728229e+03  1.0150442647236757e+03  1.0147523169632152e+03  1.0143970401204223e+03  1.0139896121097470e+03  1.0135402617345570e+03  1.0130583001763456e+03  1.0125521625275021e+03  1.0120294559597918e+03  1.0114970120699785e+03  1.0109609416600402e+03  1.0104266907399732e+03  1.0098990969278544e+03  1.0093824456995044e+03  1.0088805261370006e+03  1.0083966859637691e+03  1.0079338857512257e+03  1.0074947522509227e+03  1.0070816308563961e+03  1.0066966372372254e+03  1.0063417082189361e+03  1.0060186520094389e+03  1.0057291978976950e+03  1.0054750455743621e+03  1.0052579142478853e+03  1.0050795917530210e+03  1.0049419838720362e+03  1.0048471641116212e+03  1.0047974242005707e+03  1.0047953255942415e+03  1.0048437522913617e+03  1.0049459652866860e+03  1.0051056589989939e+03  1.0053270200278332e+03  1.0056147886040144e+03  1.0059743231080358e+03  1.0064116680372368e+03  1.0069336258064301e+03  1.0075478327679872e+03  1.0082628398357497e+03  1.0090881980926777e+03  1.0100345497547681e+03  1.0111137248534587e+03  1.0123388439854685e+03  1.0137244274628400e+03  1.0152865111768887e+03  1.0170427694679455e+03  1.0190126452683498e+03  1.0212174877593441e+03  1.0236806977536557e+03  1.0264278809850350e+03  1.0294870094543724e+03  1.0328885909499120e+03  1.0366658468273060e+03  1.0408548981047672e+03  1.0454949599005395e+03  1.0506285442155997e+03  1.0563016710454672e+03  1.0625640877929306e+03  1.0694694969502877e+03  1.0770757920274573e+03  1.0854453017232640e+03  1.0946450423737538e+03  1.1047469787659993e+03  1.1158282934810277e+03  1.1279716650276196e+03  1.1412655551520261e+03  1.1558045058589144e+03  1.1716894468572627e+03  1.1890280143517498e+03  1.2079348823342812e+03  1.2285321077887161e+03  1.2509494914990216e+03  1.2753249564380531e+03  1.3018049459974072e+03  1.3305448445790096e+03  1.3617094232793368e+03  1.3954733135211302e+03  1.4320215114768739e+03  1.4715499159206990e+03  1.5142659016610583e+03  1.5603889298461600e+03  1.6101511950767112e+03  1.6637983072626662e+03  1.7215900033588775e+03  1.7838008803321222e+03  1.8507211357739586e+03  1.9226572963351125e+03  1.9999329065503784e+03  2.0828891417386740e+03  2.1718852988752433e+03  2.2672991094978224e+03  2.3695268104641577e+03  </DataArray> 
</PointData> 
</Piece>
</UnstructuredGrid>
</VTKFile>