<?xml version="1.0"?>
<VTKFile type="UnstructuredGrid"  version="0.1"  >
<UnstructuredGrid>
<Piece  NumberOfPoints="101" NumberOfCells="100">
<Points>
<DataArray  type="Float64"  NumberOfComponents="3"  format="ascii">0 0 0  0.01 0 0  0.02 0 0  0.03 0 0  0.04 0 0  0.05 0 0  0.06 0 0  0.07000000000000001 0 0  0.08 0 0  0.09 0 0  0.1 0 0  0.11 0 0  0.12 0 0  0.13 0 0  0.14 0 0  0.15 0 0  0.16 0 0  0.17 0 0  0.18 0 0  0.19 0 0  0.2 0 0  0.21 0 0  0.22 0 0  0.23 0 0  0.24 0 0  0.25 0 0  0.26 0 0  0.27 0 0  0.28 0 0  0.29 0 0  0.3 0 0  0.31 0 0  0.32 0 0  0.33 0 0  0.34 0 0  0.35 0 0  0.36 0 0  0.37 0 0  0.38 0 0  0.39 0 0  0.4 0 0  0.41 0 0  0.42 0 0  0.43 0 0  0.44 0 0  0.45 0 0  0.46 0 0  0.47 0 0  0.48 0 0  0.49 0 0  0.5 0 0  0.51 0 0  0.52 0 0  0.53 0 0  0.54 0 0  0.55 0 0  0.5600000000000001 0 0  0.57 0 0  0.58 0 0  0.59 0 0  0.6 0 0  0.61 0 0  0.62 0 0  0.63 0 0  0.64 0 0  0.65 0 0  0.66 0 0  0.67 0 0  0.68 0 0  0.6899999999999999 0 0  0.7 0 0  0.71 0 0  0.72 0 0  0.73 0 0  0.74 0 0  0.75 0 0  0.76 0 0  0.77 0 0  0.78 0 0  0.79 0 0  0.8 0 0  0.8100000000000001 0 0  0.82 0 0  0.83 0 0  0.84 0 0  0.85 0 0  0.86 0 0  0.87 0 0  0.88 0 0  0.89 0 0  0.9 0 0  0.91 0 0  0.92 0 0  0.93 0 0  0.9399999999999999 0 0  0.95 0 0  0.96 0 0  0.97 0 0  0.98 0 0  0.99 0 0  1 0 0  </DataArray>
</Points>
<Cells>
<DataArray  type="UInt32"  Name="connectivity"  format="ascii">0 1  1 2  2 3  3 4  4 5  5 6  6 7  7 8  8 9  9 10  10 11  11 12  12 13  13 14  14 15  15 16  16 17  17 18  18 19  19 20  20 21  21 22  22 23  23 24  24 25  25 26  26 27  27 28  28 29  29 30  30 31  31 32  32 33  33 34  34 35  35 36  36 37  37 38  38 39  39 40  40 41  41 42  42 43  43 44  44 45  45 46  46 47  47 48  48 49  49 50  50 51  51 52  52 53  53 54  54 55  55 56  56 57  57 58  58 59  59 60  60 61  61 62  62 63  63 64  64 65  65 66  66 67  67 68  68 69  69 70  70 71  71 72  72 73  73 74  74 75  75 76  76 77  77 78  78 79  79 80  80 81  81 82  82 83  83 84  84 85  85 86  86 87  87 88  88 89  89 90  90 91  91 92  92 93  93 94  94 95  95 96  96 97  97 98  98 99  99 100  </DataArray>
<DataArray  type="UInt32"  Name="offsets"  format="ascii">2 4 6 8 10 12 14 16 18 20 22 24 26 28 30 32 34 36 38 40 42 44 46 48 50 52 54 56 58 60 62 64 66 68 70 72 74 76 78 80 82 84 86 88 90 92 94 96 98 100 102 104 106 108 110 112 114 116 118 120 122 124 126 128 130 132 134 136 138 140 142 144 146 148 150 152 154 156 158 160 162 164 166 168 170 172 174 176 178 180 182 184 186 188 190 192 194 196 198 200 </DataArray>
<DataArray  type="UInt8"  Name="types"  format="ascii">3 3 3 3 3 3 3 3 3 3 3 3 3 3 3 3 3 3 3 3 3 3 3 3 3 3 3 3 3 3 3 3 3 3 3 3 3 3 3 3 3 3 3 3 3 3 3 3 3 3 3 3 3 3 3 3 3 3 3 3 3 3 3 3 3 3 3 3 3 3 3 3 3 3 3 3 3 3 3 3 3 3 3 3 3 3 3 3 3 3 3 3 3 3 3 3 3 3 3 3 </DataArray>
</Cells>
<PointData  Scalars="f_13"> 
<DataArray  type="Float64"  Name="f_13"  format="ascii">9.6242481038337996e+02  9.6524958325091961e+02  9.6802841892059871e+02  9.7075010138852554e+02  9.7340402153472189e+02  9.7598120753656553e+02  9.7847482483328179e+02  9.8088033789257133e+02  9.8319546578505424e+02  9.8542002088174706e+02  9.8755568994421924e+02  9.8960579590612087e+02  9.9157506415874832e+02  9.9346940727872345e+02  9.9529573552119200e+02  9.9706179607529543e+02  9.9877604134361445e+02  1.0004475248668224e+03  1.0020858226160225e+03  1.0037009769690146e+03  1.0053034605984897e+03  1.0069041576086802e+03  1.0085143594792153e+03  1.0101457736547844e+03  1.0118105429197428e+03  1.0135212739944265e+03  1.0152910740704151e+03  1.0171335942573733e+03  1.0190630791408231e+03  1.0210944218474714e+03  1.0232432241835392e+03  1.0255258615540247e+03  1.0279595524896197e+03  1.0305624327060166e+03  1.0333536337005078e+03  1.0363533659559182e+03  1.0395830068746216e+03  1.0430651936080603e+03  1.0468239209819160e+03  1.0508846447457283e+03  1.0552743903999303e+03  1.0600218678743677e+03  1.0651575923515647e+03  1.0707140115463292e+03  1.0767256397716083e+03  1.0832291991395819e+03  1.0902637682674535e+03  1.0978709388798509e+03  1.1060949807247018e+03  1.1149830152473762e+03  1.1245851984992144e+03  1.1349549137917354e+03  1.1461489746472080e+03  1.1582278386402502e+03  1.1712558327740676e+03  1.1853013910891048e+03  1.2004373052615772e+03  1.2167409890146598e+03  1.2342947572361586e+03  1.2531861207730728e+03  1.2735080979553143e+03  1.2953595439872622e+03  1.3188454994358656e+03  1.3440775591361030e+03  1.3711742629267308e+03  1.4002615097185203e+03  1.4314729964798901e+03  1.4649506837961371e+03  1.5008452897122199e+03  1.5393168135976123e+03  1.5805350917656765e+03  1.6246803865278741e+03  1.6719440102512490e+03  1.7225289857998112e+03  1.7766507444579697e+03  1.8345378620356262e+03  1.8964328333160229e+03  1.9625928843030727e+03  2.0332908208275082e+03  2.1088159109540275e+03  2.1894747972705954e+03  2.2755924335186155e+03  2.3675130381332633e+03  2.4656010551218164e+03  2.5702421103613806e+03  2.6818439489429775e+03  2.8008373367972108e+03  2.9276769077874251e+03  3.0628419361863043e+03  3.2068370146236516e+03  3.3601926201891702e+03  3.5234655578285615e+03  3.6972392825517873e+03  3.8821241232307739e+03  4.0787574650814554e+03  4.2878040011860594e+03  4.5099562438512676e+03  4.7459356056888646e+03  4.9964945339638216e+03  5.2624204319829432e+03  5.5445424584121356e+03  </DataArray> 
</PointData> 
</Piece>
</UnstructuredGrid>
</VTKFile>