<?xml version="1.0"?>
<VTKFile type="UnstructuredGrid"  version="0.1"  >
<UnstructuredGrid>
<Piece  NumberOfPoints="101" NumberOfCells="100">
<Points>
<DataArray  type="Float64"  NumberOfComponents="3"  format="ascii">0 0 0  0.01 0 0  0.02 0 0  0.03 0 0  0.04 0 0  0.05 0 0  0.06 0 0  0.07000000000000001 0 0  0.08 0 0  0.09 0 0  0.1 0 0  0.11 0 0  0.12 0 0  0.13 0 0  0.14 0 0  0.15 0 0  0.16 0 0  0.17 0 0  0.18 0 0  0.19 0 0  0.2 0 0  0.21 0 0  0.22 0 0  0.23 0 0  0.24 0 0  0.25 0 0  0.26 0 0  0.27 0 0  0.28 0 0  0.29 0 0  0.3 0 0  0.31 0 0  0.32 0 0  0.33 0 0  0.34 0 0  0.35 0 0  0.36 0 0  0.37 0 0  0.38 0 0  0.39 0 0  0.4 0 0  0.41 0 0  0.42 0 0  0.43 0 0  0.44 0 0  0.45 0 0  0.46 0 0  0.47 0 0  0.48 0 0  0.49 0 0  0.5 0 0  0.51 0 0  0.52 0 0  0.53 0 0  0.54 0 0  0.55 0 0  0.5600000000000001 0 0  0.57 0 0  0.58 0 0  0.59 0 0  0.6 0 0  0.61 0 0  0.62 0 0  0.63 0 0  0.64 0 0  0.65 0 0  0.66 0 0  0.67 0 0  0.68 0 0  0.6899999999999999 0 0  0.7 0 0  0.71 0 0  0.72 0 0  0.73 0 0  0.74 0 0  0.75 0 0  0.76 0 0  0.77 0 0  0.78 0 0  0.79 0 0  0.8 0 0  0.8100000000000001 0 0  0.82 0 0  0.83 0 0  0.84 0 0  0.85 0 0  0.86 0 0  0.87 0 0  0.88 0 0  0.89 0 0  0.9 0 0  0.91 0 0  0.92 0 0  0.93 0 0  0.9399999999999999 0 0  0.95 0 0  0.96 0 0  0.97 0 0  0.98 0 0  0.99 0 0  1 0 0  </DataArray>
</Points>
<Cells>
<DataArray  type="UInt32"  Name="connectivity"  format="ascii">0 1  1 2  2 3  3 4  4 5  5 6  6 7  7 8  8 9  9 10  10 11  11 12  12 13  13 14  14 15  15 16  16 17  17 18  18 19  19 20  20 21  21 22  22 23  23 24  24 25  25 26  26 27  27 28  28 29  29 30  30 31  31 32  32 33  33 34  34 35  35 36  36 37  37 38  38 39  39 40  40 41  41 42  42 43  43 44  44 45  45 46  46 47  47 48  48 49  49 50  50 51  51 52  52 53  53 54  54 55  55 56  56 57  57 58  58 59  59 60  60 61  61 62  62 63  63 64  64 65  65 66  66 67  67 68  68 69  69 70  70 71  71 72  72 73  73 74  74 75  75 76  76 77  77 78  78 79  79 80  80 81  81 82  82 83  83 84  84 85  85 86  86 87  87 88  88 89  89 90  90 91  91 92  92 93  93 94  94 95  95 96  96 97  97 98  98 99  99 100  </DataArray>
<DataArray  type="UInt32"  Name="offsets"  format="ascii">2 4 6 8 10 12 14 16 18 20 22 24 26 28 30 32 34 36 38 40 42 44 46 48 50 52 54 56 58 60 62 64 66 68 70 72 74 76 78 80 82 84 86 88 90 92 94 96 98 100 102 104 106 108 110 112 114 116 118 120 122 124 126 128 130 132 134 136 138 140 142 144 146 148 150 152 154 156 158 160 162 164 166 168 170 172 174 176 178 180 182 184 186 188 190 192 194 196 198 200 </DataArray>
<DataArray  type="UInt8"  Name="types"  format="ascii">3 3 3 3 3 3 3 3 3 3 3 3 3 3 3 3 3 3 3 3 3 3 3 3 3 3 3 3 3 3 3 3 3 3 3 3 3 3 3 3 3 3 3 3 3 3 3 3 3 3 3 3 3 3 3 3 3 3 3 3 3 3 3 3 3 3 3 3 3 3 3 3 3 3 3 3 3 3 3 3 3 3 3 3 3 3 3 3 3 3 3 3 3 3 3 3 3 3 3 3 </DataArray>
</Cells>
<PointData  Scalars="f_13"> 
<DataArray  type="Float64"  Name="f_13"  format="ascii">9.6489306514310840e+02  9.6656451647318204e+02  9.6842909919310125e+02  9.7042982266249953e+02  9.7252235772458550e+02  9.7467239043886104e+02  9.7685358143385736e+02  9.7904598996214020e+02  9.8123485347016458e+02  9.8340963874608906e+02  9.8556330056117645e+02  9.8769169916360295e+02  9.8979313988277920e+02  9.9186800719225255e+02  9.9391847246910629e+02  9.9594825987334355e+02  9.9796245864940636e+02  9.9996737303784869e+02  1.0019704031236535e+03  1.0039799515282627e+03  1.0060053520199669e+03  1.0080568169814892e+03  1.0101454013165383e+03  1.0122829808597079e+03  1.0144822437211410e+03  1.0167566932813788e+03  1.0191206617762152e+03  1.0215893335928607e+03  1.0241787775490704e+03  1.0269059875543385e+03  1.0297889311625286e+03  1.0328466056223479e+03  1.0360991011186254e+03  1.0395676709753448e+03  1.0432748086621871e+03  1.0472443315109924e+03  1.0515014711078711e+03  1.0560729703813511e+03  1.0609871874575615e+03  1.0662742064005652e+03  1.0719659550000863e+03  1.0780963298105573e+03  1.0847013286851000e+03  1.0918191910862101e+03  1.0994905464920007e+03  1.1077585712532207e+03  1.1166691542923190e+03  1.1262710720718158e+03  1.1366161732954731e+03  1.1477595738423820e+03  1.1597598624712189e+03  1.1726793178695896e+03  1.1865841376615172e+03  1.2015446800245177e+03  1.2176357186060627e+03  1.2349367114670824e+03  1.2535320848168683e+03  1.2735115323385257e+03  1.2949703309359491e+03  1.3180096737609038e+03  1.3427370214007169e+03  1.3692664721214585e+03  1.3977191520662616e+03  1.4282236263011034e+03  1.4609163315781068e+03  1.4959420316459637e+03  1.5334542958747181e+03  1.5736160018736362e+03  1.6165998626614678e+03  1.6625889787926096e+03  1.7117774156443288e+03  1.7643708058221487e+03  1.8205869763344756e+03  1.8806565998136916e+03  1.9448238686074565e+03  2.0133471900162231e+03  2.0864999002925565e+03  2.1645709942209919e+03  2.2478658661327318e+03  2.3367070570358946e+03  2.4314350011033821e+03  2.5324087629808841e+03  2.6400067551538309e+03  2.7546274218036697e+03  2.8766898719992532e+03  3.0066344404489382e+03  3.1449231480321755e+03  3.2920400264643504e+03  3.4484912610944821e+03  3.6148050921537001e+03  3.7915313966564809e+03  3.9792408491555884e+03  4.1785235277784577e+03  4.3899867899926703e+03  4.6142521872484385e+03  4.8519511150859380e+03  5.1037188005419112e+03  5.3701861056476491e+03  5.6519684670607940e+03  5.9496510885572525e+03  6.2637692448966036e+03  </DataArray> 
</PointData> 
</Piece>
</UnstructuredGrid>
</VTKFile>