<?xml version="1.0"?>
<VTKFile type="UnstructuredGrid"  version="0.1"  >
<UnstructuredGrid>
<Piece  NumberOfPoints="101" NumberOfCells="100">
<Points>
<DataArray  type="Float64"  NumberOfComponents="3"  format="ascii">0 0 0  0.01 0 0  0.02 0 0  0.03 0 0  0.04 0 0  0.05 0 0  0.06 0 0  0.07000000000000001 0 0  0.08 0 0  0.09 0 0  0.1 0 0  0.11 0 0  0.12 0 0  0.13 0 0  0.14 0 0  0.15 0 0  0.16 0 0  0.17 0 0  0.18 0 0  0.19 0 0  0.2 0 0  0.21 0 0  0.22 0 0  0.23 0 0  0.24 0 0  0.25 0 0  0.26 0 0  0.27 0 0  0.28 0 0  0.29 0 0  0.3 0 0  0.31 0 0  0.32 0 0  0.33 0 0  0.34 0 0  0.35 0 0  0.36 0 0  0.37 0 0  0.38 0 0  0.39 0 0  0.4 0 0  0.41 0 0  0.42 0 0  0.43 0 0  0.44 0 0  0.45 0 0  0.46 0 0  0.47 0 0  0.48 0 0  0.49 0 0  0.5 0 0  0.51 0 0  0.52 0 0  0.53 0 0  0.54 0 0  0.55 0 0  0.5600000000000001 0 0  0.57 0 0  0.58 0 0  0.59 0 0  0.6 0 0  0.61 0 0  0.62 0 0  0.63 0 0  0.64 0 0  0.65 0 0  0.66 0 0  0.67 0 0  0.68 0 0  0.6899999999999999 0 0  0.7 0 0  0.71 0 0  0.72 0 0  0.73 0 0  0.74 0 0  0.75 0 0  0.76 0 0  0.77 0 0  0.78 0 0  0.79 0 0  0.8 0 0  0.8100000000000001 0 0  0.82 0 0  0.83 0 0  0.84 0 0  0.85 0 0  0.86 0 0  0.87 0 0  0.88 0 0  0.89 0 0  0.9 0 0  0.91 0 0  0.92 0 0  0.93 0 0  0.9399999999999999 0 0  0.95 0 0  0.96 0 0  0.97 0 0  0.98 0 0  0.99 0 0  1 0 0  </DataArray>
</Points>
<Cells>
<DataArray  type="UInt32"  Name="connectivity"  format="ascii">0 1  1 2  2 3  3 4  4 5  5 6  6 7  7 8  8 9  9 10  10 11  11 12  12 13  13 14  14 15  15 16  16 17  17 18  18 19  19 20  20 21  21 22  22 23  23 24  24 25  25 26  26 27  27 28  28 29  29 30  30 31  31 32  32 33  33 34  34 35  35 36  36 37  37 38  38 39  39 40  40 41  41 42  42 43  43 44  44 45  45 46  46 47  47 48  48 49  49 50  50 51  51 52  52 53  53 54  54 55  55 56  56 57  57 58  58 59  59 60  60 61  61 62  62 63  63 64  64 65  65 66  66 67  67 68  68 69  69 70  70 71  71 72  72 73  73 74  74 75  75 76  76 77  77 78  78 79  79 80  80 81  81 82  82 83  83 84  84 85  85 86  86 87  87 88  88 89  89 90  90 91  91 92  92 93  93 94  94 95  95 96  96 97  97 98  98 99  99 100  </DataArray>
<DataArray  type="UInt32"  Name="offsets"  format="ascii">2 4 6 8 10 12 14 16 18 20 22 24 26 28 30 32 34 36 38 40 42 44 46 48 50 52 54 56 58 60 62 64 66 68 70 72 74 76 78 80 82 84 86 88 90 92 94 96 98 100 102 104 106 108 110 112 114 116 118 120 122 124 126 128 130 132 134 136 138 140 142 144 146 148 150 152 154 156 158 160 162 164 166 168 170 172 174 176 178 180 182 184 186 188 190 192 194 196 198 200 </DataArray>
<DataArray  type="UInt8"  Name="types"  format="ascii">3 3 3 3 3 3 3 3 3 3 3 3 3 3 3 3 3 3 3 3 3 3 3 3 3 3 3 3 3 3 3 3 3 3 3 3 3 3 3 3 3 3 3 3 3 3 3 3 3 3 3 3 3 3 3 3 3 3 3 3 3 3 3 3 3 3 3 3 3 3 3 3 3 3 3 3 3 3 3 3 3 3 3 3 3 3 3 3 3 3 3 3 3 3 3 3 3 3 3 3 </DataArray>
</Cells>
<PointData  Scalars="f_13"> 
<DataArray  type="Float64"  Name="f_13"  format="ascii">9.9487927033254300e+02  9.9737264160913901e+02  9.9955606220932839e+02  1.0014559496515978e+03  1.0030973597524277e+03  1.0045039034547007e+03  1.0056977266403049e+03  1.0066995311289924e+03  1.0075286215136720e+03  1.0082029672344869e+03  1.0087392727499411e+03  1.0091530511396255e+03  1.0094586982177075e+03  1.0096695654413436e+03  1.0097980307106152e+03  1.0098555666877826e+03  1.0098528065968844e+03  1.0097996076614523e+03  1.0097051124431887e+03  1.0095778083900132e+03  1.0094255859106048e+03  1.0092557952801367e+03  1.0090753026588819e+03  1.0088905454786631e+03  1.0087075874260127e+03  1.0085321732279110e+03  1.0083697834273215e+03  1.0082256893219320e+03  1.0081050082304612e+03  1.0080127592462596e+03  1.0079539196371916e+03  1.0079334820533239e+03  1.0079565127091658e+03  1.0080282107144965e+03  1.0081539687366380e+03  1.0083394351868855e+03  1.0085905781342437e+03  1.0089137511602744e+03  1.0093157613793828e+03  1.0098039398590116e+03  1.0103862146837264e+03  1.0110711869158971e+03  1.0118682097134689e+03  1.0127874708720793e+03  1.0138400790644596e+03  1.0150381540546548e+03  1.0163949211681145e+03  1.0179248103012278e+03  1.0196435597554930e+03  1.0215683251823771e+03  1.0237177939252136e+03  1.0261123050444585e+03  1.0287739753125286e+03  1.0317268314646467e+03  1.0349969489929690e+03  1.0386125977732252e+03  1.0426043948166609e+03  1.0470054644457680e+03  1.0518516062007650e+03  1.0571814707957144e+03  1.0630367444592739e+03  1.0694623420162061e+03  1.0765066090927824e+03  1.0842215338630594e+03  1.0926629687947075e+03  1.1018908629037087e+03  1.1119695050879943e+03  1.1229677791821673e+03  1.1349594314602132e+03  1.1480233514118984e+03  1.1622438667329245e+03  1.1777110536004216e+03  1.1945210634557525e+03  1.2127764676876923e+03  1.2325866218028391e+03  1.2540680508887399e+03  1.2773448584209582e+03  1.3025491607406518e+03  1.3298215498367010e+03  1.3593115874086732e+03  1.3911783335664768e+03  1.4255909139416715e+03  1.4627291294457236e+03  1.5027841134124317e+03  1.5459590414038112e+03  1.5924698995363203e+03  1.6425463177880106e+03  1.6964324753606786e+03  1.7543880857676959e+03  1.8166894698568383e+03  1.8836307253966836e+03  1.9555250020656101e+03  2.0327058905566491e+03  2.1155289338707880e+03  2.2043732674692042e+03  2.2996433924553394e+03  2.4017710819085332e+03  2.5112174142903245e+03  2.6284749186999916e+03  2.7540698036344361e+03  2.8885642224757175e+03  </DataArray> 
</PointData> 
</Piece>
</UnstructuredGrid>
</VTKFile>