<?xml version="1.0"?>
<VTKFile type="UnstructuredGrid"  version="0.1"  >
<UnstructuredGrid>
<Piece  NumberOfPoints="101" NumberOfCells="100">
<Points>
<DataArray  type="Float64"  NumberOfComponents="3"  format="ascii">0 0 0  0.01 0 0  0.02 0 0  0.03 0 0  0.04 0 0  0.05 0 0  0.06 0 0  0.07000000000000001 0 0  0.08 0 0  0.09 0 0  0.1 0 0  0.11 0 0  0.12 0 0  0.13 0 0  0.14 0 0  0.15 0 0  0.16 0 0  0.17 0 0  0.18 0 0  0.19 0 0  0.2 0 0  0.21 0 0  0.22 0 0  0.23 0 0  0.24 0 0  0.25 0 0  0.26 0 0  0.27 0 0  0.28 0 0  0.29 0 0  0.3 0 0  0.31 0 0  0.32 0 0  0.33 0 0  0.34 0 0  0.35 0 0  0.36 0 0  0.37 0 0  0.38 0 0  0.39 0 0  0.4 0 0  0.41 0 0  0.42 0 0  0.43 0 0  0.44 0 0  0.45 0 0  0.46 0 0  0.47 0 0  0.48 0 0  0.49 0 0  0.5 0 0  0.51 0 0  0.52 0 0  0.53 0 0  0.54 0 0  0.55 0 0  0.5600000000000001 0 0  0.57 0 0  0.58 0 0  0.59 0 0  0.6 0 0  0.61 0 0  0.62 0 0  0.63 0 0  0.64 0 0  0.65 0 0  0.66 0 0  0.67 0 0  0.68 0 0  0.6899999999999999 0 0  0.7 0 0  0.71 0 0  0.72 0 0  0.73 0 0  0.74 0 0  0.75 0 0  0.76 0 0  0.77 0 0  0.78 0 0  0.79 0 0  0.8 0 0  0.8100000000000001 0 0  0.82 0 0  0.83 0 0  0.84 0 0  0.85 0 0  0.86 0 0  0.87 0 0  0.88 0 0  0.89 0 0  0.9 0 0  0.91 0 0  0.92 0 0  0.93 0 0  0.9399999999999999 0 0  0.95 0 0  0.96 0 0  0.97 0 0  0.98 0 0  0.99 0 0  1 0 0  </DataArray>
</Points>
<Cells>
<DataArray  type="UInt32"  Name="connectivity"  format="ascii">0 1  1 2  2 3  3 4  4 5  5 6  6 7  7 8  8 9  9 10  10 11  11 12  12 13  13 14  14 15  15 16  16 17  17 18  18 19  19 20  20 21  21 22  22 23  23 24  24 25  25 26  26 27  27 28  28 29  29 30  30 31  31 32  32 33  33 34  34 35  35 36  36 37  37 38  38 39  39 40  40 41  41 42  42 43  43 44  44 45  45 46  46 47  47 48  48 49  49 50  50 51  51 52  52 53  53 54  54 55  55 56  56 57  57 58  58 59  59 60  60 61  61 62  62 63  63 64  64 65  65 66  66 67  67 68  68 69  69 70  70 71  71 72  72 73  73 74  74 75  75 76  76 77  77 78  78 79  79 80  80 81  81 82  82 83  83 84  84 85  85 86  86 87  87 88  88 89  89 90  90 91  91 92  92 93  93 94  94 95  95 96  96 97  97 98  98 99  99 100  </DataArray>
<DataArray  type="UInt32"  Name="offsets"  format="ascii">2 4 6 8 10 12 14 16 18 20 22 24 26 28 30 32 34 36 38 40 42 44 46 48 50 52 54 56 58 60 62 64 66 68 70 72 74 76 78 80 82 84 86 88 90 92 94 96 98 100 102 104 106 108 110 112 114 116 118 120 122 124 126 128 130 132 134 136 138 140 142 144 146 148 150 152 154 156 158 160 162 164 166 168 170 172 174 176 178 180 182 184 186 188 190 192 194 196 198 200 </DataArray>
<DataArray  type="UInt8"  Name="types"  format="ascii">3 3 3 3 3 3 3 3 3 3 3 3 3 3 3 3 3 3 3 3 3 3 3 3 3 3 3 3 3 3 3 3 3 3 3 3 3 3 3 3 3 3 3 3 3 3 3 3 3 3 3 3 3 3 3 3 3 3 3 3 3 3 3 3 3 3 3 3 3 3 3 3 3 3 3 3 3 3 3 3 3 3 3 3 3 3 3 3 3 3 3 3 3 3 3 3 3 3 3 3 </DataArray>
</Cells>
<PointData  Scalars="f_13"> 
<DataArray  type="Float64"  Name="f_13"  format="ascii">6.7636282190891334e+03  6.7940023339392028e+03  6.8428082489495164e+03  6.9102845389613531e+03  6.9966808625881631e+03  7.1022656133344690e+03  7.2273319030588646e+03  7.3722022218206785e+03  7.5372320493234874e+03  7.7228126377955505e+03  7.9293731415769898e+03  8.1573822327717298e+03  8.4073493133471729e+03  8.6798254106519908e+03  8.9754038243779360e+03  9.2947205776450974e+03  9.6384547124489127e+03  1.0007328459619175e+04  1.0402107305264657e+04  1.0823599969056932e+04  1.1272658304357712e+04  1.1750177125884427e+04  1.2257093967150475e+04  1.2794388767157168e+04  1.3363083483628609e+04  1.3964241628366830e+04  1.4598967718979306e+04  1.5268406640226760e+04  1.5973742907500971e+04  1.6716199824425988e+04  1.7497038526246204e+04  1.8317556900493091e+04  1.9179088376387332e+04  2.0083000574517417e+04  2.1030693808527216e+04  2.2023599430833714e+04  2.3063178014776237e+04  2.4150917366064186e+04  2.5288330356940111e+04  2.6476952577105269e+04  2.7718339796165354e+04  2.9014065233142901e+04  3.0365716629468825e+04  3.1774893122806152e+04  3.3243201920071886e+04  3.4772254769102845e+04  3.6363664229553317e+04  3.8019039744807837e+04  3.9739983517931883e+04  4.1528086195953532e+04  4.3384922368055872e+04  4.5312045884543353e+04  4.7310985004705377e+04  4.9383237382910818e+04  5.1530264903401032e+04  5.3753488375272886e+04  5.6054282100023891e+04  5.8433968324729802e+04  6.0893811594400970e+04  6.3435013017274672e+04  6.6058704456705018e+04  6.8765942662865171e+04  7.1557703356641316e+04  7.4434875276837323e+04  7.7398254200096591e+04  8.0448536940767503e+04  8.3586315335291380e+04  8.6812070212597886e+04  9.0126165348504306e+04  9.3528841398316334e+04  9.7020209797854492e+04  1.0060024661916944e+05  1.0426878636352844e+05  1.0802551567119625e+05  1.1186996692556012e+05  1.1580151172883800e+05  1.1981935422870002e+05  1.2392252428054535e+05  1.2810987044004293e+05  1.3238005279625775e+05  1.3673153567893675e+05  1.4116258030637054e+05  1.4567123748514781e+05  1.5025534053305039e+05  1.5491249867485699e+05  1.5964009126220891e+05  1.6443526329806115e+05  1.6929492290977197e+05  1.7421574162001110e+05  1.7919415852042491e+05  1.8422638977039646e+05  1.8930844523580119e+05  1.9443615456707918e+05  1.9960520561298309e+05  2.0481119880194869e+05  2.1004972202971519e+05  2.1531645171050724e+05  2.2060728703124070e+05  2.2591852615836862e+05  2.3124709526565985e+05  2.3659084387791701e+05  </DataArray> 
</PointData> 
</Piece>
</UnstructuredGrid>
</VTKFile>