<?xml version="1.0"?>
<VTKFile type="UnstructuredGrid"  version="0.1"  >
<UnstructuredGrid>
<Piece  NumberOfPoints="101" NumberOfCells="100">
<Points>
<DataArray  type="Float64"  NumberOfComponents="3"  format="ascii">0 0 0  0.01 0 0  0.02 0 0  0.03 0 0  0.04 0 0  0.05 0 0  0.06 0 0  0.07000000000000001 0 0  0.08 0 0  0.09 0 0  0.1 0 0  0.11 0 0  0.12 0 0  0.13 0 0  0.14 0 0  0.15 0 0  0.16 0 0  0.17 0 0  0.18 0 0  0.19 0 0  0.2 0 0  0.21 0 0  0.22 0 0  0.23 0 0  0.24 0 0  0.25 0 0  0.26 0 0  0.27 0 0  0.28 0 0  0.29 0 0  0.3 0 0  0.31 0 0  0.32 0 0  0.33 0 0  0.34 0 0  0.35 0 0  0.36 0 0  0.37 0 0  0.38 0 0  0.39 0 0  0.4 0 0  0.41 0 0  0.42 0 0  0.43 0 0  0.44 0 0  0.45 0 0  0.46 0 0  0.47 0 0  0.48 0 0  0.49 0 0  0.5 0 0  0.51 0 0  0.52 0 0  0.53 0 0  0.54 0 0  0.55 0 0  0.5600000000000001 0 0  0.57 0 0  0.58 0 0  0.59 0 0  0.6 0 0  0.61 0 0  0.62 0 0  0.63 0 0  0.64 0 0  0.65 0 0  0.66 0 0  0.67 0 0  0.68 0 0  0.6899999999999999 0 0  0.7 0 0  0.71 0 0  0.72 0 0  0.73 0 0  0.74 0 0  0.75 0 0  0.76 0 0  0.77 0 0  0.78 0 0  0.79 0 0  0.8 0 0  0.8100000000000001 0 0  0.82 0 0  0.83 0 0  0.84 0 0  0.85 0 0  0.86 0 0  0.87 0 0  0.88 0 0  0.89 0 0  0.9 0 0  0.91 0 0  0.92 0 0  0.93 0 0  0.9399999999999999 0 0  0.95 0 0  0.96 0 0  0.97 0 0  0.98 0 0  0.99 0 0  1 0 0  </DataArray>
</Points>
<Cells>
<DataArray  type="UInt32"  Name="connectivity"  format="ascii">0 1  1 2  2 3  3 4  4 5  5 6  6 7  7 8  8 9  9 10  10 11  11 12  12 13  13 14  14 15  15 16  16 17  17 18  18 19  19 20  20 21  21 22  22 23  23 24  24 25  25 26  26 27  27 28  28 29  29 30  30 31  31 32  32 33  33 34  34 35  35 36  36 37  37 38  38 39  39 40  40 41  41 42  42 43  43 44  44 45  45 46  46 47  47 48  48 49  49 50  50 51  51 52  52 53  53 54  54 55  55 56  56 57  57 58  58 59  59 60  60 61  61 62  62 63  63 64  64 65  65 66  66 67  67 68  68 69  69 70  70 71  71 72  72 73  73 74  74 75  75 76  76 77  77 78  78 79  79 80  80 81  81 82  82 83  83 84  84 85  85 86  86 87  87 88  88 89  89 90  90 91  91 92  92 93  93 94  94 95  95 96  96 97  97 98  98 99  99 100  </DataArray>
<DataArray  type="UInt32"  Name="offsets"  format="ascii">2 4 6 8 10 12 14 16 18 20 22 24 26 28 30 32 34 36 38 40 42 44 46 48 50 52 54 56 58 60 62 64 66 68 70 72 74 76 78 80 82 84 86 88 90 92 94 96 98 100 102 104 106 108 110 112 114 116 118 120 122 124 126 128 130 132 134 136 138 140 142 144 146 148 150 152 154 156 158 160 162 164 166 168 170 172 174 176 178 180 182 184 186 188 190 192 194 196 198 200 </DataArray>
<DataArray  type="UInt8"  Name="types"  format="ascii">3 3 3 3 3 3 3 3 3 3 3 3 3 3 3 3 3 3 3 3 3 3 3 3 3 3 3 3 3 3 3 3 3 3 3 3 3 3 3 3 3 3 3 3 3 3 3 3 3 3 3 3 3 3 3 3 3 3 3 3 3 3 3 3 3 3 3 3 3 3 3 3 3 3 3 3 3 3 3 3 3 3 3 3 3 3 3 3 3 3 3 3 3 3 3 3 3 3 3 3 </DataArray>
</Cells>
<PointData  Scalars="f_13"> 
<DataArray  type="Float64"  Name="f_13"  format="ascii">9.7135752090287781e+02  9.8621636886135309e+02  1.0008588717570133e+03  1.0153609034087837e+03  1.0298015040762550e+03  1.0442610677261823e+03  1.0588201566778330e+03  1.0735587909436808e+03  1.0885560925925015e+03  1.1038901917481644e+03  1.1196383218251824e+03  1.1358770483697037e+03  1.1526825892527622e+03  1.1701311946025689e+03  1.1882995632834127e+03  1.2072652793494244e+03  1.2271072570639183e+03  1.2479061870601156e+03  1.2697449792584457e+03  1.2927092004405265e+03  1.3168875060682071e+03  1.3423720671574017e+03  1.3692589938771150e+03  1.3976487581304946e+03  1.4276466177567902e+03  1.4593630452267121e+03  1.4929141638333392e+03  1.5284221944413239e+03  1.5660159158758165e+03  1.6058311420300790e+03  1.6480112187628927e+03  1.6927075436552236e+03  1.7400801117087535e+03  1.7902980901027745e+03  1.8435404251848793e+03  1.8999964849576020e+03  1.9598667404395767e+03  2.0233634894270335e+03  2.0907116263603252e+03  2.1621494622111959e+03  2.2379295985501667e+03  2.3183198602302787e+03  2.4036042914342338e+03  2.4940842201777368e+03  2.5900793967439895e+03  2.6919292119446618e+03  2.7999940015637544e+03  2.9146564438457062e+03  3.0363230574419117e+03  3.1654258078354710e+03  3.3024238309288285e+03  3.4478052832105363e+03  3.6020893287253552e+03  3.7658282739677466e+03  3.9396098628167774e+03  4.1240597447477257e+03  4.3198441308130259e+03  4.5276726533078008e+03  4.7483014466530813e+03  4.9825364688789205e+03  5.2312370852126542e+03  5.4953199377248066e+03  5.7757631278159970e+03  6.0736107416114264e+03  6.3899777521451724e+03  6.7260553366562244e+03  7.0831166524863547e+03  7.4625231210840675e+03  7.8657312766098084e+03  8.2943002437487576e+03  8.7498999187237896e+03  9.2343199383255342e+03  9.7494795342071684e+03  1.0297438383893257e+04  1.0880408586079555e+04  1.1500767905983577e+04  1.2161074456832637e+04  1.2864083006070958e+04  1.3612763119459752e+04  1.4410319382730442e+04  1.5260213968444621e+04  1.6166191844583622e+04  1.7132308950179679e+04  1.8162963690632714e+04  1.9262932129310469e+04  2.0437407269992345e+04  2.1692042833195534e+04  2.3033001923819971e+04  2.4467010961882661e+04  2.6001419194668513e+04  2.7644264017530459e+04  2.9404342189257753e+04  3.1291286820460751e+04  3.3315649719628927e+04  3.5488988275910240e+04  3.7823955507963030e+04  4.0334391173492433e+04  4.3035410862113829e+04  4.5943488718098590e+04  4.9076527773046771e+04  5.2453909699344564e+04  </DataArray> 
</PointData> 
</Piece>
</UnstructuredGrid>
</VTKFile>