<?xml version="1.0"?>
<VTKFile type="UnstructuredGrid"  version="0.1"  >
<UnstructuredGrid>
<Piece  NumberOfPoints="101" NumberOfCells="100">
<Points>
<DataArray  type="Float64"  NumberOfComponents="3"  format="ascii">0 0 0  0.01 0 0  0.02 0 0  0.03 0 0  0.04 0 0  0.05 0 0  0.06 0 0  0.07000000000000001 0 0  0.08 0 0  0.09 0 0  0.1 0 0  0.11 0 0  0.12 0 0  0.13 0 0  0.14 0 0  0.15 0 0  0.16 0 0  0.17 0 0  0.18 0 0  0.19 0 0  0.2 0 0  0.21 0 0  0.22 0 0  0.23 0 0  0.24 0 0  0.25 0 0  0.26 0 0  0.27 0 0  0.28 0 0  0.29 0 0  0.3 0 0  0.31 0 0  0.32 0 0  0.33 0 0  0.34 0 0  0.35 0 0  0.36 0 0  0.37 0 0  0.38 0 0  0.39 0 0  0.4 0 0  0.41 0 0  0.42 0 0  0.43 0 0  0.44 0 0  0.45 0 0  0.46 0 0  0.47 0 0  0.48 0 0  0.49 0 0  0.5 0 0  0.51 0 0  0.52 0 0  0.53 0 0  0.54 0 0  0.55 0 0  0.5600000000000001 0 0  0.57 0 0  0.58 0 0  0.59 0 0  0.6 0 0  0.61 0 0  0.62 0 0  0.63 0 0  0.64 0 0  0.65 0 0  0.66 0 0  0.67 0 0  0.68 0 0  0.6899999999999999 0 0  0.7 0 0  0.71 0 0  0.72 0 0  0.73 0 0  0.74 0 0  0.75 0 0  0.76 0 0  0.77 0 0  0.78 0 0  0.79 0 0  0.8 0 0  0.8100000000000001 0 0  0.82 0 0  0.83 0 0  0.84 0 0  0.85 0 0  0.86 0 0  0.87 0 0  0.88 0 0  0.89 0 0  0.9 0 0  0.91 0 0  0.92 0 0  0.93 0 0  0.9399999999999999 0 0  0.95 0 0  0.96 0 0  0.97 0 0  0.98 0 0  0.99 0 0  1 0 0  </DataArray>
</Points>
<Cells>
<DataArray  type="UInt32"  Name="connectivity"  format="ascii">0 1  1 2  2 3  3 4  4 5  5 6  6 7  7 8  8 9  9 10  10 11  11 12  12 13  13 14  14 15  15 16  16 17  17 18  18 19  19 20  20 21  21 22  22 23  23 24  24 25  25 26  26 27  27 28  28 29  29 30  30 31  31 32  32 33  33 34  34 35  35 36  36 37  37 38  38 39  39 40  40 41  41 42  42 43  43 44  44 45  45 46  46 47  47 48  48 49  49 50  50 51  51 52  52 53  53 54  54 55  55 56  56 57  57 58  58 59  59 60  60 61  61 62  62 63  63 64  64 65  65 66  66 67  67 68  68 69  69 70  70 71  71 72  72 73  73 74  74 75  75 76  76 77  77 78  78 79  79 80  80 81  81 82  82 83  83 84  84 85  85 86  86 87  87 88  88 89  89 90  90 91  91 92  92 93  93 94  94 95  95 96  96 97  97 98  98 99  99 100  </DataArray>
<DataArray  type="UInt32"  Name="offsets"  format="ascii">2 4 6 8 10 12 14 16 18 20 22 24 26 28 30 32 34 36 38 40 42 44 46 48 50 52 54 56 58 60 62 64 66 68 70 72 74 76 78 80 82 84 86 88 90 92 94 96 98 100 102 104 106 108 110 112 114 116 118 120 122 124 126 128 130 132 134 136 138 140 142 144 146 148 150 152 154 156 158 160 162 164 166 168 170 172 174 176 178 180 182 184 186 188 190 192 194 196 198 200 </DataArray>
<DataArray  type="UInt8"  Name="types"  format="ascii">3 3 3 3 3 3 3 3 3 3 3 3 3 3 3 3 3 3 3 3 3 3 3 3 3 3 3 3 3 3 3 3 3 3 3 3 3 3 3 3 3 3 3 3 3 3 3 3 3 3 3 3 3 3 3 3 3 3 3 3 3 3 3 3 3 3 3 3 3 3 3 3 3 3 3 3 3 3 3 3 3 3 3 3 3 3 3 3 3 3 3 3 3 3 3 3 3 3 3 3 </DataArray>
</Cells>
<PointData  Scalars="f_13"> 
<DataArray  type="Float64"  Name="f_13"  format="ascii">5.6856579381529882e+03  5.7112996227052727e+03  5.7531883716426082e+03  5.8114174472319391e+03  5.8861271812509613e+03  5.9775057468351524e+03  6.0857890668497657e+03  6.2112602604240337e+03  6.3542488918158751e+03  6.5151301889831857e+03  6.6943243320189295e+03  6.8922958657139916e+03  7.1095532598506161e+03  7.3466486209256718e+03  7.6041775465940200e+03  7.8827791068474808e+03  8.1831359321121745e+03  8.5059743868567493e+03  8.8520648071164942e+03  9.2222217809750891e+03  9.6173044521164957e+03  1.0038216827807575e+04  1.0485908073935059e+04  1.0961372780901680e+04  1.1465651185232960e+04  1.1999829332635871e+04  1.2565039168979927e+04  1.3162458546249089e+04  1.3793311130954755e+04  1.4458866202826235e+04  1.5160438331826346e+04  1.5899386921698322e+04  1.6677115608357351e+04  1.7495071501516279e+04  1.8354744258000297e+04  1.9257664975278341e+04  2.0205404893837400e+04  2.1199573897167247e+04  2.2241818798323664e+04  2.3333821402313966e+04  2.4477296333915456e+04  2.5673988621010078e+04  2.6925671024112489e+04  2.8234141103497801e+04  2.9601218016214556e+04  3.1028739036310602e+04  3.2518555792818453e+04  3.4072530221454086e+04  3.5692530227590447e+04  3.7380425059883877e+04  3.9138080395966528e+04  4.0967353143876608e+04  4.2870085965384467e+04  4.4848101530086438e+04  4.6903196512076982e+04  4.9037135344164388e+04  5.1251643747954040e+04  5.3548402061666013e+04  5.5929038391254318e+04  5.8395121614218377e+04  6.0948154269399965e+04  6.3589565369982629e+04  6.6320703180789671e+04  6.9142828004725277e+04  7.2057105026721823e+04  7.5064597266722456e+04  7.8166258695899494e+04  8.1362927572314031e+04  8.4655320053358824e+04  8.8044024142359049e+04  9.1529494025353357e+04  9.5112044851014827e+04  9.8791848001519465e+04  1.0256892689448125e+05  1.0644315334534146e+05  1.1041424450523536e+05  1.1448176037069673e+05  1.1864510183785451e+05  1.2290350924420492e+05  1.2725606130473551e+05  1.3170167430523786e+05  1.3623910136322369e+05  1.4086693150524583e+05  1.4558358823821374e+05  1.5038732721161179e+05  1.5527623247840093e+05  1.6024821076721925e+05  1.6530098308183841e+05  1.7043207285334900e+05  1.7563878979848206e+05  1.8091820860257812e+05  1.8626714157595491e+05  1.9168210456860662e+05  1.9715927572887423e+05  2.0269444723990554e+05  2.0828297107951026e+05  2.1391970128544167e+05  2.1959893739062623e+05  2.2531437692366680e+05  2.3105908955901529e+05  2.3682553220141481e+05  </DataArray> 
</PointData> 
</Piece>
</UnstructuredGrid>
</VTKFile>