<?xml version="1.0"?>
<VTKFile type="UnstructuredGrid"  version="0.1"  >
<UnstructuredGrid>
<Piece  NumberOfPoints="101" NumberOfCells="100">
<Points>
<DataArray  type="Float64"  NumberOfComponents="3"  format="ascii">0 0 0  0.01 0 0  0.02 0 0  0.03 0 0  0.04 0 0  0.05 0 0  0.06 0 0  0.07000000000000001 0 0  0.08 0 0  0.09 0 0  0.1 0 0  0.11 0 0  0.12 0 0  0.13 0 0  0.14 0 0  0.15 0 0  0.16 0 0  0.17 0 0  0.18 0 0  0.19 0 0  0.2 0 0  0.21 0 0  0.22 0 0  0.23 0 0  0.24 0 0  0.25 0 0  0.26 0 0  0.27 0 0  0.28 0 0  0.29 0 0  0.3 0 0  0.31 0 0  0.32 0 0  0.33 0 0  0.34 0 0  0.35 0 0  0.36 0 0  0.37 0 0  0.38 0 0  0.39 0 0  0.4 0 0  0.41 0 0  0.42 0 0  0.43 0 0  0.44 0 0  0.45 0 0  0.46 0 0  0.47 0 0  0.48 0 0  0.49 0 0  0.5 0 0  0.51 0 0  0.52 0 0  0.53 0 0  0.54 0 0  0.55 0 0  0.5600000000000001 0 0  0.57 0 0  0.58 0 0  0.59 0 0  0.6 0 0  0.61 0 0  0.62 0 0  0.63 0 0  0.64 0 0  0.65 0 0  0.66 0 0  0.67 0 0  0.68 0 0  0.6899999999999999 0 0  0.7 0 0  0.71 0 0  0.72 0 0  0.73 0 0  0.74 0 0  0.75 0 0  0.76 0 0  0.77 0 0  0.78 0 0  0.79 0 0  0.8 0 0  0.8100000000000001 0 0  0.82 0 0  0.83 0 0  0.84 0 0  0.85 0 0  0.86 0 0  0.87 0 0  0.88 0 0  0.89 0 0  0.9 0 0  0.91 0 0  0.92 0 0  0.93 0 0  0.9399999999999999 0 0  0.95 0 0  0.96 0 0  0.97 0 0  0.98 0 0  0.99 0 0  1 0 0  </DataArray>
</Points>
<Cells>
<DataArray  type="UInt32"  Name="connectivity"  format="ascii">0 1  1 2  2 3  3 4  4 5  5 6  6 7  7 8  8 9  9 10  10 11  11 12  12 13  13 14  14 15  15 16  16 17  17 18  18 19  19 20  20 21  21 22  22 23  23 24  24 25  25 26  26 27  27 28  28 29  29 30  30 31  31 32  32 33  33 34  34 35  35 36  36 37  37 38  38 39  39 40  40 41  41 42  42 43  43 44  44 45  45 46  46 47  47 48  48 49  49 50  50 51  51 52  52 53  53 54  54 55  55 56  56 57  57 58  58 59  59 60  60 61  61 62  62 63  63 64  64 65  65 66  66 67  67 68  68 69  69 70  70 71  71 72  72 73  73 74  74 75  75 76  76 77  77 78  78 79  79 80  80 81  81 82  82 83  83 84  84 85  85 86  86 87  87 88  88 89  89 90  90 91  91 92  92 93  93 94  94 95  95 96  96 97  97 98  98 99  99 100  </DataArray>
<DataArray  type="UInt32"  Name="offsets"  format="ascii">2 4 6 8 10 12 14 16 18 20 22 24 26 28 30 32 34 36 38 40 42 44 46 48 50 52 54 56 58 60 62 64 66 68 70 72 74 76 78 80 82 84 86 88 90 92 94 96 98 100 102 104 106 108 110 112 114 116 118 120 122 124 126 128 130 132 134 136 138 140 142 144 146 148 150 152 154 156 158 160 162 164 166 168 170 172 174 176 178 180 182 184 186 188 190 192 194 196 198 200 </DataArray>
<DataArray  type="UInt8"  Name="types"  format="ascii">3 3 3 3 3 3 3 3 3 3 3 3 3 3 3 3 3 3 3 3 3 3 3 3 3 3 3 3 3 3 3 3 3 3 3 3 3 3 3 3 3 3 3 3 3 3 3 3 3 3 3 3 3 3 3 3 3 3 3 3 3 3 3 3 3 3 3 3 3 3 3 3 3 3 3 3 3 3 3 3 3 3 3 3 3 3 3 3 3 3 3 3 3 3 3 3 3 3 3 3 </DataArray>
</Cells>
<PointData  Scalars="f_13"> 
<DataArray  type="Float64"  Name="f_13"  format="ascii">9.6313057228904017e+02  9.6616487753352214e+02  9.6917394362779839e+02  9.7211109248740343e+02  9.7494601103965272e+02  9.7766035574029445e+02  9.8024448712872015e+02  9.8269504899829951e+02  9.8501317908350109e+02  9.8720319207703460e+02  9.8927161597110035e+02  9.9122649267178451e+02  9.9307687618211219e+02  9.9483247833786811e+02  9.9650342456205601e+02  9.9810009145649815e+02  9.9963300507207566e+02  1.0011127839850936e+03  1.0025501152954311e+03  1.0039557546780674e+03  1.0053405439049023e+03  1.0067154409881290e+03  1.0080915594136644e+03  1.0094802139334455e+03  1.0108929711439505e+03  1.0123417036518941e+03  1.0138386470597336e+03  1.0153964593263012e+03  1.0170282822967833e+03  1.0187478053708938e+03  1.0205693314035486e+03  1.0225078450204381e+03  1.0245790835908022e+03  1.0267996111386651e+03  1.0291868954974148e+03  1.0317593890253297e+03  1.0345366132049071e+03  1.0375392474492796e+03  1.0407892224367022e+03  1.0443098182905769e+03  1.0481257679189839e+03  1.0522633658250675e+03  1.0567505826985489e+03  1.0616171860996094e+03  1.0668948675497556e+03  1.0726173763503489e+03  1.0788206604584714e+03  1.0855430147619477e+03  1.0928252371108460e+03  1.1007107924819024e+03  1.1092459856753344e+03  1.1184801429707568e+03  1.1284658032008329e+03  1.1392589187383405e+03  1.1509190669351074e+03  1.1635096726004401e+03  1.1770982421629953e+03  1.1917566102243723e+03  1.2075611992859995e+03  1.2245932935141282e+03  1.2429393275020068e+03  1.2626911910946433e+03  1.2839465514610117e+03  1.3068091937320407e+03  1.3313893816709785e+03  1.3578042400062079e+03  1.3861781602352389e+03  1.4166432319017879e+03  1.4493397015539617e+03  1.4844164618078187e+03  1.5220315731625185e+03  1.5623528214343137e+03  1.6055583138873524e+03  1.6518371173265164e+03  1.7013899415634403e+03  1.7544298717473168e+03  1.8111831530349577e+03  1.8718900309172557e+03  1.9368056501655576e+03  2.0062010147376479e+03  2.0803640099921340e+03  2.1596004870746510e+03  2.2442354071921068e+03  2.3346140404618895e+03  2.4311032098209348e+03  2.5340925647207700e+03  2.6439958615101036e+03  2.7612522168403375e+03  2.8863272862219828e+03  3.0197143008118510e+03  3.1619348700201695e+03  3.3135394234516152e+03  3.4751071201684144e+03  3.6472449924499770e+03  3.8305860099843285e+03  4.0257856418848396e+03  4.2335163488808939e+03  4.4544592441848527e+03  4.6892919024670819e+03  4.9386709501742116e+03  5.2032076079352391e+03  </DataArray> 
</PointData> 
</Piece>
</UnstructuredGrid>
</VTKFile>