<?xml version="1.0"?>
<VTKFile type="UnstructuredGrid"  version="0.1"  >
<UnstructuredGrid>
<Piece  NumberOfPoints="101" NumberOfCells="100">
<Points>
<DataArray  type="Float64"  NumberOfComponents="3"  format="ascii">0 0 0  0.01 0 0  0.02 0 0  0.03 0 0  0.04 0 0  0.05 0 0  0.06 0 0  0.07000000000000001 0 0  0.08 0 0  0.09 0 0  0.1 0 0  0.11 0 0  0.12 0 0  0.13 0 0  0.14 0 0  0.15 0 0  0.16 0 0  0.17 0 0  0.18 0 0  0.19 0 0  0.2 0 0  0.21 0 0  0.22 0 0  0.23 0 0  0.24 0 0  0.25 0 0  0.26 0 0  0.27 0 0  0.28 0 0  0.29 0 0  0.3 0 0  0.31 0 0  0.32 0 0  0.33 0 0  0.34 0 0  0.35 0 0  0.36 0 0  0.37 0 0  0.38 0 0  0.39 0 0  0.4 0 0  0.41 0 0  0.42 0 0  0.43 0 0  0.44 0 0  0.45 0 0  0.46 0 0  0.47 0 0  0.48 0 0  0.49 0 0  0.5 0 0  0.51 0 0  0.52 0 0  0.53 0 0  0.54 0 0  0.55 0 0  0.5600000000000001 0 0  0.57 0 0  0.58 0 0  0.59 0 0  0.6 0 0  0.61 0 0  0.62 0 0  0.63 0 0  0.64 0 0  0.65 0 0  0.66 0 0  0.67 0 0  0.68 0 0  0.6899999999999999 0 0  0.7 0 0  0.71 0 0  0.72 0 0  0.73 0 0  0.74 0 0  0.75 0 0  0.76 0 0  0.77 0 0  0.78 0 0  0.79 0 0  0.8 0 0  0.8100000000000001 0 0  0.82 0 0  0.83 0 0  0.84 0 0  0.85 0 0  0.86 0 0  0.87 0 0  0.88 0 0  0.89 0 0  0.9 0 0  0.91 0 0  0.92 0 0  0.93 0 0  0.9399999999999999 0 0  0.95 0 0  0.96 0 0  0.97 0 0  0.98 0 0  0.99 0 0  1 0 0  </DataArray>
</Points>
<Cells>
<DataArray  type="UInt32"  Name="connectivity"  format="ascii">0 1  1 2  2 3  3 4  4 5  5 6  6 7  7 8  8 9  9 10  10 11  11 12  12 13  13 14  14 15  15 16  16 17  17 18  18 19  19 20  20 21  21 22  22 23  23 24  24 25  25 26  26 27  27 28  28 29  29 30  30 31  31 32  32 33  33 34  34 35  35 36  36 37  37 38  38 39  39 40  40 41  41 42  42 43  43 44  44 45  45 46  46 47  47 48  48 49  49 50  50 51  51 52  52 53  53 54  54 55  55 56  56 57  57 58  58 59  59 60  60 61  61 62  62 63  63 64  64 65  65 66  66 67  67 68  68 69  69 70  70 71  71 72  72 73  73 74  74 75  75 76  76 77  77 78  78 79  79 80  80 81  81 82  82 83  83 84  84 85  85 86  86 87  87 88  88 89  89 90  90 91  91 92  92 93  93 94  94 95  95 96  96 97  97 98  98 99  99 100  </DataArray>
<DataArray  type="UInt32"  Name="offsets"  format="ascii">2 4 6 8 10 12 14 16 18 20 22 24 26 28 30 32 34 36 38 40 42 44 46 48 50 52 54 56 58 60 62 64 66 68 70 72 74 76 78 80 82 84 86 88 90 92 94 96 98 100 102 104 106 108 110 112 114 116 118 120 122 124 126 128 130 132 134 136 138 140 142 144 146 148 150 152 154 156 158 160 162 164 166 168 170 172 174 176 178 180 182 184 186 188 190 192 194 196 198 200 </DataArray>
<DataArray  type="UInt8"  Name="types"  format="ascii">3 3 3 3 3 3 3 3 3 3 3 3 3 3 3 3 3 3 3 3 3 3 3 3 3 3 3 3 3 3 3 3 3 3 3 3 3 3 3 3 3 3 3 3 3 3 3 3 3 3 3 3 3 3 3 3 3 3 3 3 3 3 3 3 3 3 3 3 3 3 3 3 3 3 3 3 3 3 3 3 3 3 3 3 3 3 3 3 3 3 3 3 3 3 3 3 3 3 3 3 </DataArray>
</Cells>
<PointData  Scalars="f_13"> 
<DataArray  type="Float64"  Name="f_13"  format="ascii">1.0117506995947110e+03  1.0253057688907259e+03  1.0394713342757457e+03  1.0542827639668972e+03  1.0697694664891433e+03  1.0859586835957684e+03  1.1028782110700115e+03  1.1205583238835500e+03  1.1390331152372219e+03  1.1583414083707776e+03  1.1785273616213954e+03  1.1996408580048349e+03  1.2217377483340551e+03  1.2448799998969448e+03  1.2691357897303662e+03  1.2945795716082282e+03  1.3212921382952127e+03  1.3493606948659353e+03  1.3788789545409788e+03  1.4099472652318414e+03  1.4426727725740723e+03  1.4771696234742426e+03  1.5135592129560434e+03  1.5519704762500055e+03  1.5925402275410806e+03  1.6354135464990109e+03  1.6807442136135671e+03  1.7286951953979608e+03  1.7794391806761107e+03  1.8331591694077476e+03  1.8900491158104135e+03  1.9503146278950219e+03  2.0141737259315175e+03  2.0818576627961502e+03  2.1536118096174027e+03  2.2296966106310674e+03  2.3103886116754002e+03  2.3959815673049347e+03  2.4867876320776454e+03  2.5831386421766210e+03  2.6853874941666922e+03  2.7939096283612821e+03  2.9091046249879928e+03  3.0313979220959477e+03  3.1612426649463696e+03  3.2991216974725139e+03  3.4455497072876624e+03  3.6010755366613162e+03  3.7662846728739460e+03  3.9418019323981739e+03  4.1282943544361497e+03  4.3264743204638999e+03  4.5371029175861568e+03  4.7609935646790991e+03  4.9990159214794530e+03  5.2521001019486048e+03  5.5212412143765641e+03  5.8075042517645870e+03  6.1120293570021549e+03  6.4360374881919042e+03  6.7808365101256823e+03  7.1478277383175309e+03  7.5385129620881244e+03  7.9545019728929656e+03  8.3975206233071312e+03  8.8694194407267914e+03  9.3721828178182750e+03  9.9079387989286897e+03  1.0478969477954148e+04  1.1087722018429684e+04  1.1736820300753370e+04  1.2429077194396366e+04  1.3167507444620143e+04  1.3955341153604364e+04  1.4796037825033913e+04  1.5693300929243618e+04  1.6651092933247764e+04  1.7673650726838310e+04  1.8765501363108815e+04  1.9931478020253053e+04  2.1176736082716259e+04  2.2506769235703592e+04  2.3927425470343427e+04  2.5444922911050904e+04  2.7065865406621157e+04  2.8797257878635090e+04  3.0646521503224390e+04  3.2621508926079408e+04  3.4730519890162454e+04  3.6982317909737969e+04  3.9386148977715769e+04  4.1951763778266984e+04  4.4689445535675433e+04  4.7610046519273841e+04  5.0725037416670522e+04  5.4046575380472350e+04  5.7587598675946167e+04  6.1361958679066534e+04  6.5384603722741995e+04  6.9671834265256810e+04  7.4241655461053204e+04  </DataArray> 
</PointData> 
</Piece>
</UnstructuredGrid>
</VTKFile>