<?xml version="1.0"?>
<VTKFile type="UnstructuredGrid"  version="0.1"  >
<UnstructuredGrid>
<Piece  NumberOfPoints="101" NumberOfCells="100">
<Points>
<DataArray  type="Float64"  NumberOfComponents="3"  format="ascii">0 0 0  0.01 0 0  0.02 0 0  0.03 0 0  0.04 0 0  0.05 0 0  0.06 0 0  0.07000000000000001 0 0  0.08 0 0  0.09 0 0  0.1 0 0  0.11 0 0  0.12 0 0  0.13 0 0  0.14 0 0  0.15 0 0  0.16 0 0  0.17 0 0  0.18 0 0  0.19 0 0  0.2 0 0  0.21 0 0  0.22 0 0  0.23 0 0  0.24 0 0  0.25 0 0  0.26 0 0  0.27 0 0  0.28 0 0  0.29 0 0  0.3 0 0  0.31 0 0  0.32 0 0  0.33 0 0  0.34 0 0  0.35 0 0  0.36 0 0  0.37 0 0  0.38 0 0  0.39 0 0  0.4 0 0  0.41 0 0  0.42 0 0  0.43 0 0  0.44 0 0  0.45 0 0  0.46 0 0  0.47 0 0  0.48 0 0  0.49 0 0  0.5 0 0  0.51 0 0  0.52 0 0  0.53 0 0  0.54 0 0  0.55 0 0  0.5600000000000001 0 0  0.57 0 0  0.58 0 0  0.59 0 0  0.6 0 0  0.61 0 0  0.62 0 0  0.63 0 0  0.64 0 0  0.65 0 0  0.66 0 0  0.67 0 0  0.68 0 0  0.6899999999999999 0 0  0.7 0 0  0.71 0 0  0.72 0 0  0.73 0 0  0.74 0 0  0.75 0 0  0.76 0 0  0.77 0 0  0.78 0 0  0.79 0 0  0.8 0 0  0.8100000000000001 0 0  0.82 0 0  0.83 0 0  0.84 0 0  0.85 0 0  0.86 0 0  0.87 0 0  0.88 0 0  0.89 0 0  0.9 0 0  0.91 0 0  0.92 0 0  0.93 0 0  0.9399999999999999 0 0  0.95 0 0  0.96 0 0  0.97 0 0  0.98 0 0  0.99 0 0  1 0 0  </DataArray>
</Points>
<Cells>
<DataArray  type="UInt32"  Name="connectivity"  format="ascii">0 1  1 2  2 3  3 4  4 5  5 6  6 7  7 8  8 9  9 10  10 11  11 12  12 13  13 14  14 15  15 16  16 17  17 18  18 19  19 20  20 21  21 22  22 23  23 24  24 25  25 26  26 27  27 28  28 29  29 30  30 31  31 32  32 33  33 34  34 35  35 36  36 37  37 38  38 39  39 40  40 41  41 42  42 43  43 44  44 45  45 46  46 47  47 48  48 49  49 50  50 51  51 52  52 53  53 54  54 55  55 56  56 57  57 58  58 59  59 60  60 61  61 62  62 63  63 64  64 65  65 66  66 67  67 68  68 69  69 70  70 71  71 72  72 73  73 74  74 75  75 76  76 77  77 78  78 79  79 80  80 81  81 82  82 83  83 84  84 85  85 86  86 87  87 88  88 89  89 90  90 91  91 92  92 93  93 94  94 95  95 96  96 97  97 98  98 99  99 100  </DataArray>
<DataArray  type="UInt32"  Name="offsets"  format="ascii">2 4 6 8 10 12 14 16 18 20 22 24 26 28 30 32 34 36 38 40 42 44 46 48 50 52 54 56 58 60 62 64 66 68 70 72 74 76 78 80 82 84 86 88 90 92 94 96 98 100 102 104 106 108 110 112 114 116 118 120 122 124 126 128 130 132 134 136 138 140 142 144 146 148 150 152 154 156 158 160 162 164 166 168 170 172 174 176 178 180 182 184 186 188 190 192 194 196 198 200 </DataArray>
<DataArray  type="UInt8"  Name="types"  format="ascii">3 3 3 3 3 3 3 3 3 3 3 3 3 3 3 3 3 3 3 3 3 3 3 3 3 3 3 3 3 3 3 3 3 3 3 3 3 3 3 3 3 3 3 3 3 3 3 3 3 3 3 3 3 3 3 3 3 3 3 3 3 3 3 3 3 3 3 3 3 3 3 3 3 3 3 3 3 3 3 3 3 3 3 3 3 3 3 3 3 3 3 3 3 3 3 3 3 3 3 3 </DataArray>
</Cells>
<PointData  Scalars="f_13"> 
<DataArray  type="Float64"  Name="f_13"  format="ascii">1.0016273206995957e+03  1.0035676309851167e+03  1.0052221355071653e+03  1.0066206460346693e+03  1.0077897818950568e+03  1.0087534863279317e+03  1.0095334350049885e+03  1.0101493584270593e+03  1.0106192964376612e+03  1.0109597999042273e+03  1.0111860917902713e+03  1.0113121974009330e+03  1.0113510515244443e+03  1.0113145884865792e+03  1.0112138197466916e+03  1.0110589025507433e+03  1.0108592022768339e+03  1.0106233504227748e+03  1.0103592996577260e+03  1.0100743769599623e+03  1.0097753355642128e+03  1.0094684062229325e+03  1.0091593481284802e+03  1.0088534997331728e+03  1.0085558296301502e+03  1.0082709876110130e+03  1.0080033559893116e+03  1.0077571012668683e+03  1.0075362262184960e+03  1.0073446224768637e+03  1.0071861237107130e+03  1.0070645595045920e+03  1.0069838100654223e+03  1.0069478618995613e+03  1.0069608646228063e+03  1.0070271890844449e+03  1.0071514870045417e+03  1.0073387523408260e+03  1.0075943846175531e+03  1.0079242544633295e+03  1.0083347716179725e+03  1.0088329556798890e+03  1.0094265098751065e+03  1.0101238981369188e+03  1.0109344257910768e+03  1.0118683241455540e+03  1.0129368392861596e+03  1.0141523253797180e+03  1.0155283427852437e+03  1.0170797612706424e+03  1.0188228686280980e+03  1.0207754849756567e+03  1.0229570830258203e+03  1.0253889145945018e+03  1.0280941436157880e+03  1.0310979859200161e+03  1.0344278560251221e+03  1.0381135211845904e+03  1.0421872629302070e+03  1.0466840463448223e+03  1.0516416973002097e+03  1.0571010878986383e+03  1.0631063303648191e+03  1.0697049796483752e+03  1.0769482450169126e+03  1.0848912109471785e+03  1.0935930676578098e+03  1.1031173516729298e+03  1.1135321968625842e+03  1.1249105964749310e+03  1.1373306767575359e+03  1.1508759828624177e+03  1.1656357778430920e+03  1.1817053556833030e+03  1.1991863694481867e+03  1.2181871758212696e+03  1.2388231974873875e+03  1.2612173050453512e+03  1.2855002203888387e+03  1.3118109437846372e+03  1.3402972072107273e+03  1.3711159569017564e+03  1.4044338684981951e+03  1.4404278987238215e+03  1.4792858781451775e+03  1.5212071503239367e+03  1.5664032635944332e+03  1.6150987228300353e+03  1.6675318099619346e+03  1.7239554837555202e+03  1.7846383715233774e+03  1.8498658681703789e+03  1.9199413613574065e+03  1.9951876057909897e+03  2.0759482748743080e+03  2.1625897243884838e+03  2.2555030107238404e+03  2.3551062156642038e+03  2.4618471410441762e+03  2.5762064499104476e+03  2.6987013462070672e+03  </DataArray> 
</PointData> 
</Piece>
</UnstructuredGrid>
</VTKFile>