<?xml version="1.0"?>
<VTKFile type="UnstructuredGrid"  version="0.1"  >
<UnstructuredGrid>
<Piece  NumberOfPoints="101" NumberOfCells="100">
<Points>
<DataArray  type="Float64"  NumberOfComponents="3"  format="ascii">0 0 0  0.01 0 0  0.02 0 0  0.03 0 0  0.04 0 0  0.05 0 0  0.06 0 0  0.07000000000000001 0 0  0.08 0 0  0.09 0 0  0.1 0 0  0.11 0 0  0.12 0 0  0.13 0 0  0.14 0 0  0.15 0 0  0.16 0 0  0.17 0 0  0.18 0 0  0.19 0 0  0.2 0 0  0.21 0 0  0.22 0 0  0.23 0 0  0.24 0 0  0.25 0 0  0.26 0 0  0.27 0 0  0.28 0 0  0.29 0 0  0.3 0 0  0.31 0 0  0.32 0 0  0.33 0 0  0.34 0 0  0.35 0 0  0.36 0 0  0.37 0 0  0.38 0 0  0.39 0 0  0.4 0 0  0.41 0 0  0.42 0 0  0.43 0 0  0.44 0 0  0.45 0 0  0.46 0 0  0.47 0 0  0.48 0 0  0.49 0 0  0.5 0 0  0.51 0 0  0.52 0 0  0.53 0 0  0.54 0 0  0.55 0 0  0.5600000000000001 0 0  0.57 0 0  0.58 0 0  0.59 0 0  0.6 0 0  0.61 0 0  0.62 0 0  0.63 0 0  0.64 0 0  0.65 0 0  0.66 0 0  0.67 0 0  0.68 0 0  0.6899999999999999 0 0  0.7 0 0  0.71 0 0  0.72 0 0  0.73 0 0  0.74 0 0  0.75 0 0  0.76 0 0  0.77 0 0  0.78 0 0  0.79 0 0  0.8 0 0  0.8100000000000001 0 0  0.82 0 0  0.83 0 0  0.84 0 0  0.85 0 0  0.86 0 0  0.87 0 0  0.88 0 0  0.89 0 0  0.9 0 0  0.91 0 0  0.92 0 0  0.93 0 0  0.9399999999999999 0 0  0.95 0 0  0.96 0 0  0.97 0 0  0.98 0 0  0.99 0 0  1 0 0  </DataArray>
</Points>
<Cells>
<DataArray  type="UInt32"  Name="connectivity"  format="ascii">0 1  1 2  2 3  3 4  4 5  5 6  6 7  7 8  8 9  9 10  10 11  11 12  12 13  13 14  14 15  15 16  16 17  17 18  18 19  19 20  20 21  21 22  22 23  23 24  24 25  25 26  26 27  27 28  28 29  29 30  30 31  31 32  32 33  33 34  34 35  35 36  36 37  37 38  38 39  39 40  40 41  41 42  42 43  43 44  44 45  45 46  46 47  47 48  48 49  49 50  50 51  51 52  52 53  53 54  54 55  55 56  56 57  57 58  58 59  59 60  60 61  61 62  62 63  63 64  64 65  65 66  66 67  67 68  68 69  69 70  70 71  71 72  72 73  73 74  74 75  75 76  76 77  77 78  78 79  79 80  80 81  81 82  82 83  83 84  84 85  85 86  86 87  87 88  88 89  89 90  90 91  91 92  92 93  93 94  94 95  95 96  96 97  97 98  98 99  99 100  </DataArray>
<DataArray  type="UInt32"  Name="offsets"  format="ascii">2 4 6 8 10 12 14 16 18 20 22 24 26 28 30 32 34 36 38 40 42 44 46 48 50 52 54 56 58 60 62 64 66 68 70 72 74 76 78 80 82 84 86 88 90 92 94 96 98 100 102 104 106 108 110 112 114 116 118 120 122 124 126 128 130 132 134 136 138 140 142 144 146 148 150 152 154 156 158 160 162 164 166 168 170 172 174 176 178 180 182 184 186 188 190 192 194 196 198 200 </DataArray>
<DataArray  type="UInt8"  Name="types"  format="ascii">3 3 3 3 3 3 3 3 3 3 3 3 3 3 3 3 3 3 3 3 3 3 3 3 3 3 3 3 3 3 3 3 3 3 3 3 3 3 3 3 3 3 3 3 3 3 3 3 3 3 3 3 3 3 3 3 3 3 3 3 3 3 3 3 3 3 3 3 3 3 3 3 3 3 3 3 3 3 3 3 3 3 3 3 3 3 3 3 3 3 3 3 3 3 3 3 3 3 3 3 </DataArray>
</Cells>
<PointData  Scalars="f_13"> 
<DataArray  type="Float64"  Name="f_13"  format="ascii">1.0337052777719759e+03  1.0317978540319564e+03  1.0297823357781849e+03  1.0277174326727500e+03  1.0256492709571814e+03  1.0236136096024420e+03  1.0216376531782597e+03  1.0197415496585912e+03  1.0179396391104902e+03  1.0162415024790624e+03  1.0146528473160535e+03  1.0131762582945004e+03  1.0118118338707706e+03  1.0105577258292499e+03  1.0094105951537889e+03  1.0083659953195976e+03  1.0074186923980484e+03  1.0065629301043527e+03  1.0057926469462083e+03  1.0051016518489852e+03  1.0044837639727228e+03  1.0039329218554866e+03  1.0034432664906875e+03  1.0030092024583212e+03  1.0026254407744756e+03  1.0022870266970084e+03  1.0019893553274716e+03  1.0017281774807591e+03  1.0014995979553930e+03  1.0013000680294932e+03  1.0011263737305107e+03  1.0009756211804199e+03  1.0008452201014770e+03  1.0007328663796059e+03  1.0006365244214155e+03  1.0005544099049785e+03  1.0004849734118739e+03  1.0004268853366458e+03  1.0003790223977975e+03  1.0003404560198517e+03  1.0003104428171433e+03  1.0002884173852515e+03  1.0002739875939511e+03  1.0002669325750136e+03  1.0002672036080806e+03  1.0002749281273029e+03  1.0002904170997609e+03  1.0003141760633091e+03  1.0003469201559609e+03  1.0003895935209033e+03  1.0004433935304238e+03  1.0005098003381838e+03  1.0005906123421181e+03  1.0006879882194712e+03  1.0008044962806790e+03  1.0009431719793906e+03  1.0011075845111218e+03  1.0013019135317555e+03  1.0015310371279231e+03  1.0018006322723215e+03  1.0021172890958418e+03  1.0024886404019356e+03  1.0029235079331615e+03  1.0034320669707145e+03  1.0040260308994224e+03  1.0047188573966633e+03  1.0055259778963078e+03  1.0064650519294651e+03  1.0075562478427452e+03  1.0088225512312612e+03  1.0102901021862024e+03  1.0119885621335978e+03  1.0139515106199652e+03  1.0162168718707449e+03  1.0188273702992352e+03  1.0218310133705762e+03  1.0252815993250895e+03  1.0292392462424320e+03  1.0337709377960596e+03  1.0389510798320175e+03  1.0448620606482650e+03  1.0515948066115707e+03  1.0592493236137268e+03  1.0679352139520124e+03  1.0777721576694005e+03  1.0888903473963092e+03  1.1014308665297115e+03  1.1155460024458841e+03  1.1313994896963170e+03  1.1491666831540472e+03  1.1690346682702379e+03  1.1912023254047890e+03  1.2158803780535236e+03  1.2432914711311839e+03  1.2736703456523719e+03  1.3072642004554184e+03  1.3443333601773052e+03  1.3851524014919632e+03  1.4300119264992827e+03  1.4792212128568599e+03  1.5331120146815058e+03  </DataArray> 
</PointData> 
</Piece>
</UnstructuredGrid>
</VTKFile>