<?xml version="1.0"?>
<VTKFile type="UnstructuredGrid"  version="0.1"  >
<UnstructuredGrid>
<Piece  NumberOfPoints="101" NumberOfCells="100">
<Points>
<DataArray  type="Float64"  NumberOfComponents="3"  format="ascii">0 0 0  0.01 0 0  0.02 0 0  0.03 0 0  0.04 0 0  0.05 0 0  0.06 0 0  0.07000000000000001 0 0  0.08 0 0  0.09 0 0  0.1 0 0  0.11 0 0  0.12 0 0  0.13 0 0  0.14 0 0  0.15 0 0  0.16 0 0  0.17 0 0  0.18 0 0  0.19 0 0  0.2 0 0  0.21 0 0  0.22 0 0  0.23 0 0  0.24 0 0  0.25 0 0  0.26 0 0  0.27 0 0  0.28 0 0  0.29 0 0  0.3 0 0  0.31 0 0  0.32 0 0  0.33 0 0  0.34 0 0  0.35 0 0  0.36 0 0  0.37 0 0  0.38 0 0  0.39 0 0  0.4 0 0  0.41 0 0  0.42 0 0  0.43 0 0  0.44 0 0  0.45 0 0  0.46 0 0  0.47 0 0  0.48 0 0  0.49 0 0  0.5 0 0  0.51 0 0  0.52 0 0  0.53 0 0  0.54 0 0  0.55 0 0  0.5600000000000001 0 0  0.57 0 0  0.58 0 0  0.59 0 0  0.6 0 0  0.61 0 0  0.62 0 0  0.63 0 0  0.64 0 0  0.65 0 0  0.66 0 0  0.67 0 0  0.68 0 0  0.6899999999999999 0 0  0.7 0 0  0.71 0 0  0.72 0 0  0.73 0 0  0.74 0 0  0.75 0 0  0.76 0 0  0.77 0 0  0.78 0 0  0.79 0 0  0.8 0 0  0.8100000000000001 0 0  0.82 0 0  0.83 0 0  0.84 0 0  0.85 0 0  0.86 0 0  0.87 0 0  0.88 0 0  0.89 0 0  0.9 0 0  0.91 0 0  0.92 0 0  0.93 0 0  0.9399999999999999 0 0  0.95 0 0  0.96 0 0  0.97 0 0  0.98 0 0  0.99 0 0  1 0 0  </DataArray>
</Points>
<Cells>
<DataArray  type="UInt32"  Name="connectivity"  format="ascii">0 1  1 2  2 3  3 4  4 5  5 6  6 7  7 8  8 9  9 10  10 11  11 12  12 13  13 14  14 15  15 16  16 17  17 18  18 19  19 20  20 21  21 22  22 23  23 24  24 25  25 26  26 27  27 28  28 29  29 30  30 31  31 32  32 33  33 34  34 35  35 36  36 37  37 38  38 39  39 40  40 41  41 42  42 43  43 44  44 45  45 46  46 47  47 48  48 49  49 50  50 51  51 52  52 53  53 54  54 55  55 56  56 57  57 58  58 59  59 60  60 61  61 62  62 63  63 64  64 65  65 66  66 67  67 68  68 69  69 70  70 71  71 72  72 73  73 74  74 75  75 76  76 77  77 78  78 79  79 80  80 81  81 82  82 83  83 84  84 85  85 86  86 87  87 88  88 89  89 90  90 91  91 92  92 93  93 94  94 95  95 96  96 97  97 98  98 99  99 100  </DataArray>
<DataArray  type="UInt32"  Name="offsets"  format="ascii">2 4 6 8 10 12 14 16 18 20 22 24 26 28 30 32 34 36 38 40 42 44 46 48 50 52 54 56 58 60 62 64 66 68 70 72 74 76 78 80 82 84 86 88 90 92 94 96 98 100 102 104 106 108 110 112 114 116 118 120 122 124 126 128 130 132 134 136 138 140 142 144 146 148 150 152 154 156 158 160 162 164 166 168 170 172 174 176 178 180 182 184 186 188 190 192 194 196 198 200 </DataArray>
<DataArray  type="UInt8"  Name="types"  format="ascii">3 3 3 3 3 3 3 3 3 3 3 3 3 3 3 3 3 3 3 3 3 3 3 3 3 3 3 3 3 3 3 3 3 3 3 3 3 3 3 3 3 3 3 3 3 3 3 3 3 3 3 3 3 3 3 3 3 3 3 3 3 3 3 3 3 3 3 3 3 3 3 3 3 3 3 3 3 3 3 3 3 3 3 3 3 3 3 3 3 3 3 3 3 3 3 3 3 3 3 3 </DataArray>
</Cells>
<PointData  Scalars="f_13"> 
<DataArray  type="Float64"  Name="f_13"  format="ascii">9.7040895889064177e+02  9.7183706677013549e+02  9.7333122915561717e+02  9.7489130153073904e+02  9.7651607967558948e+02  9.7820364099027586e+02  9.7995164954343329e+02  9.8175762791527518e+02  9.8361919719585637e+02  9.8553428610173376e+02  9.8750131040958047e+02  9.8951932437593052e+02  9.9158814629953827e+02  9.9370846077922636e+02  9.9588190048422234e+02  9.9811111038194372e+02  1.0003997973753420e+03  1.0027527682118447e+03  1.0051759583640134e+03  1.0076764543719189e+03  1.0102625118992488e+03  1.0129435715057048e+03  1.0157302738899167e+03  1.0186344761190181e+03  1.0216692701394395e+03  1.0248490046622301e+03  1.0281893113373387e+03  1.0317071359753932e+03  1.0354207754422339e+03  1.0393499207397053e+03  1.0435157066944680e+03  1.0479407686030697e+03  1.0526493061243086e+03  1.0576671546671244e+03  1.0630218644919769e+03  1.0687427877241760e+03  1.0748611734672559e+03  1.0814102712017675e+03  1.0884254426584216e+03  1.0959442823631825e+03  1.1040067470645777e+03  1.1126552942692335e+03  1.1219350301296106e+03  1.1318938669473396e+03  1.1425826905757860e+03  1.1540555380258727e+03  1.1663697855991893e+03  1.1795863478915039e+03  1.1937698880274215e+03  1.2089890395026327e+03  1.2253166400234552e+03  1.2428299777437119e+03  1.2616110503059024e+03  1.2817468370966444e+03  1.3033295851249823e+03  1.3264571089259355e+03  1.3512331048801409e+03  1.3777674803232671e+03  1.4061766977957420e+03  1.4365841347540413e+03  1.4691204590293682e+03  1.5039240202781368e+03  1.5411412576218129e+03  1.5809271236221589e+03  1.6234455246830930e+03  1.6688697779140598e+03  1.7173830844345678e+03  1.7691790190487270e+03  1.8244620361765765e+03  1.8834479919011815e+03  1.9463646819837381e+03  2.0134523957215345e+03  2.0849644855856477e+03  2.1611679526885391e+03  2.2423440483102627e+03  2.3287888919718653e+03  2.4208141069040598e+03  2.5187474742388717e+03  2.6229336078740562e+03  2.7337346527487452e+03  2.8515310102488274e+03  2.9767220956569063e+03  3.1097271339976774e+03  3.2509860023252172e+03  3.4009601284680489e+03  3.5601334584961719e+03  3.7290135076936031e+03  3.9081325125858343e+03  4.0980487045374766e+03  4.2993477285294575e+03  4.5126442338474444e+03  4.7385836664368207e+03  4.9778442954584143e+03  5.2311395089671832e+03  5.4992204155260624e+03  5.7828787899599147e+03  6.0829504025764845e+03  6.4003187726753677e+03  6.7359193903918558e+03  7.0907444584225614e+03  7.4658482213817306e+03  </DataArray> 
</PointData> 
</Piece>
</UnstructuredGrid>
</VTKFile>