<?xml version="1.0"?>
<VTKFile type="UnstructuredGrid"  version="0.1"  >
<UnstructuredGrid>
<Piece  NumberOfPoints="101" NumberOfCells="100">
<Points>
<DataArray  type="Float64"  NumberOfComponents="3"  format="ascii">0 0 0  0.01 0 0  0.02 0 0  0.03 0 0  0.04 0 0  0.05 0 0  0.06 0 0  0.07000000000000001 0 0  0.08 0 0  0.09 0 0  0.1 0 0  0.11 0 0  0.12 0 0  0.13 0 0  0.14 0 0  0.15 0 0  0.16 0 0  0.17 0 0  0.18 0 0  0.19 0 0  0.2 0 0  0.21 0 0  0.22 0 0  0.23 0 0  0.24 0 0  0.25 0 0  0.26 0 0  0.27 0 0  0.28 0 0  0.29 0 0  0.3 0 0  0.31 0 0  0.32 0 0  0.33 0 0  0.34 0 0  0.35 0 0  0.36 0 0  0.37 0 0  0.38 0 0  0.39 0 0  0.4 0 0  0.41 0 0  0.42 0 0  0.43 0 0  0.44 0 0  0.45 0 0  0.46 0 0  0.47 0 0  0.48 0 0  0.49 0 0  0.5 0 0  0.51 0 0  0.52 0 0  0.53 0 0  0.54 0 0  0.55 0 0  0.5600000000000001 0 0  0.57 0 0  0.58 0 0  0.59 0 0  0.6 0 0  0.61 0 0  0.62 0 0  0.63 0 0  0.64 0 0  0.65 0 0  0.66 0 0  0.67 0 0  0.68 0 0  0.6899999999999999 0 0  0.7 0 0  0.71 0 0  0.72 0 0  0.73 0 0  0.74 0 0  0.75 0 0  0.76 0 0  0.77 0 0  0.78 0 0  0.79 0 0  0.8 0 0  0.8100000000000001 0 0  0.82 0 0  0.83 0 0  0.84 0 0  0.85 0 0  0.86 0 0  0.87 0 0  0.88 0 0  0.89 0 0  0.9 0 0  0.91 0 0  0.92 0 0  0.93 0 0  0.9399999999999999 0 0  0.95 0 0  0.96 0 0  0.97 0 0  0.98 0 0  0.99 0 0  1 0 0  </DataArray>
</Points>
<Cells>
<DataArray  type="UInt32"  Name="connectivity"  format="ascii">0 1  1 2  2 3  3 4  4 5  5 6  6 7  7 8  8 9  9 10  10 11  11 12  12 13  13 14  14 15  15 16  16 17  17 18  18 19  19 20  20 21  21 22  22 23  23 24  24 25  25 26  26 27  27 28  28 29  29 30  30 31  31 32  32 33  33 34  34 35  35 36  36 37  37 38  38 39  39 40  40 41  41 42  42 43  43 44  44 45  45 46  46 47  47 48  48 49  49 50  50 51  51 52  52 53  53 54  54 55  55 56  56 57  57 58  58 59  59 60  60 61  61 62  62 63  63 64  64 65  65 66  66 67  67 68  68 69  69 70  70 71  71 72  72 73  73 74  74 75  75 76  76 77  77 78  78 79  79 80  80 81  81 82  82 83  83 84  84 85  85 86  86 87  87 88  88 89  89 90  90 91  91 92  92 93  93 94  94 95  95 96  96 97  97 98  98 99  99 100  </DataArray>
<DataArray  type="UInt32"  Name="offsets"  format="ascii">2 4 6 8 10 12 14 16 18 20 22 24 26 28 30 32 34 36 38 40 42 44 46 48 50 52 54 56 58 60 62 64 66 68 70 72 74 76 78 80 82 84 86 88 90 92 94 96 98 100 102 104 106 108 110 112 114 116 118 120 122 124 126 128 130 132 134 136 138 140 142 144 146 148 150 152 154 156 158 160 162 164 166 168 170 172 174 176 178 180 182 184 186 188 190 192 194 196 198 200 </DataArray>
<DataArray  type="UInt8"  Name="types"  format="ascii">3 3 3 3 3 3 3 3 3 3 3 3 3 3 3 3 3 3 3 3 3 3 3 3 3 3 3 3 3 3 3 3 3 3 3 3 3 3 3 3 3 3 3 3 3 3 3 3 3 3 3 3 3 3 3 3 3 3 3 3 3 3 3 3 3 3 3 3 3 3 3 3 3 3 3 3 3 3 3 3 3 3 3 3 3 3 3 3 3 3 3 3 3 3 3 3 3 3 3 3 </DataArray>
</Cells>
<PointData  Scalars="f_13"> 
<DataArray  type="Float64"  Name="f_13"  format="ascii">9.8207199275474204e+02  9.9658837835642464e+02  1.0114025166271152e+03  1.0265319163301390e+03  1.0419989545023586e+03  1.0578316049217383e+03  1.0740637176318835e+03  1.0907350099579112e+03  1.1078908862486628e+03  1.1255821703172669e+03  1.1438648092314613e+03  1.1627995880784877e+03  1.1824518812463011e+03  1.2028914555262809e+03  1.2241923330688014e+03  1.2464327172057094e+03  1.2696949808333839e+03  1.2940657149871861e+03  1.3196358340908178e+03  1.3465007338691789e+03  1.3747604978704887e+03  1.4045201488023374e+03  1.4358899413359204e+03  1.4689856935925677e+03  1.5039291551400015e+03  1.5408484099538052e+03  1.5798783134171972e+03  1.6211609630243097e+03  1.6648462030110438e+03  1.7110921636607618e+03  1.7600658365207539e+03  1.8119436872232075e+03  1.8669123080364993e+03  1.9251691126851144e+03  1.9869230763759399e+03  2.0523955243618498e+03  2.1218209727671124e+03  2.1954480257998580e+03  2.2735403338911501e+03  2.3563776177344675e+03  2.4442567636599251e+03  2.5374929962706115e+03  2.6364211348003619e+03  2.7413969402295743e+03  2.8527985608251374e+03  2.9710280844591989e+03  3.0965132068169610e+03  3.2297090254339455e+03  3.3710999704169221e+03  3.5212018837091164e+03  3.6805642598694194e+03  3.8497726625575770e+03  4.0294513322639068e+03  4.2202660023045655e+03  4.4229269417335909e+03  4.6381922456127440e+03  4.8668713950409519e+03  5.1098291114874355e+03  5.3679895323051323e+03  5.6423407368299822e+03  5.9339396551997161e+03  6.2439173949498745e+03  6.5734850235556341e+03  6.9239398483665700e+03  7.2966722387974896e+03  7.6931730391468373e+03  8.1150416239518745e+03  8.5639946512717161e+03  9.0418755726041018e+03  9.5506649611469802e+03  1.0092491722633573e+04  1.0669645254780124e+04  1.1284588622225565e+04  1.1939972813397802e+04  1.2638652143649397e+04  1.3383700864851491e+04  1.4178431034959931e+04  1.5026411691377250e+04  1.5931489358718431e+04  1.6897809904350946e+04  1.7929841733384808e+04  1.9032400288327364e+04  2.0210673787303185e+04  2.1470250098837612e+04  2.2817144611509157e+04  2.4257828914860082e+04  2.5799260066469629e+04  2.7448910183203316e+04  2.9214796068562024e+04  3.1105508581724578e+04  3.3130241479910059e+04  3.5298819541474710e+04  3.7621725926329578e+04  4.0110128984498726e+04  4.2775909124934085e+04  4.5631686960207146e+04  4.8690854820177061e+04  5.1967614971855772e+04  5.5477029612211496e+04  5.9235090066718629e+04  6.3258815820123404e+04  </DataArray> 
</PointData> 
</Piece>
</UnstructuredGrid>
</VTKFile>