<?xml version="1.0"?>
<VTKFile type="UnstructuredGrid"  version="0.1"  >
<UnstructuredGrid>
<Piece  NumberOfPoints="101" NumberOfCells="100">
<Points>
<DataArray  type="Float64"  NumberOfComponents="3"  format="ascii">0 0 0  0.01 0 0  0.02 0 0  0.03 0 0  0.04 0 0  0.05 0 0  0.06 0 0  0.07000000000000001 0 0  0.08 0 0  0.09 0 0  0.1 0 0  0.11 0 0  0.12 0 0  0.13 0 0  0.14 0 0  0.15 0 0  0.16 0 0  0.17 0 0  0.18 0 0  0.19 0 0  0.2 0 0  0.21 0 0  0.22 0 0  0.23 0 0  0.24 0 0  0.25 0 0  0.26 0 0  0.27 0 0  0.28 0 0  0.29 0 0  0.3 0 0  0.31 0 0  0.32 0 0  0.33 0 0  0.34 0 0  0.35 0 0  0.36 0 0  0.37 0 0  0.38 0 0  0.39 0 0  0.4 0 0  0.41 0 0  0.42 0 0  0.43 0 0  0.44 0 0  0.45 0 0  0.46 0 0  0.47 0 0  0.48 0 0  0.49 0 0  0.5 0 0  0.51 0 0  0.52 0 0  0.53 0 0  0.54 0 0  0.55 0 0  0.5600000000000001 0 0  0.57 0 0  0.58 0 0  0.59 0 0  0.6 0 0  0.61 0 0  0.62 0 0  0.63 0 0  0.64 0 0  0.65 0 0  0.66 0 0  0.67 0 0  0.68 0 0  0.6899999999999999 0 0  0.7 0 0  0.71 0 0  0.72 0 0  0.73 0 0  0.74 0 0  0.75 0 0  0.76 0 0  0.77 0 0  0.78 0 0  0.79 0 0  0.8 0 0  0.8100000000000001 0 0  0.82 0 0  0.83 0 0  0.84 0 0  0.85 0 0  0.86 0 0  0.87 0 0  0.88 0 0  0.89 0 0  0.9 0 0  0.91 0 0  0.92 0 0  0.93 0 0  0.9399999999999999 0 0  0.95 0 0  0.96 0 0  0.97 0 0  0.98 0 0  0.99 0 0  1 0 0  </DataArray>
</Points>
<Cells>
<DataArray  type="UInt32"  Name="connectivity"  format="ascii">0 1  1 2  2 3  3 4  4 5  5 6  6 7  7 8  8 9  9 10  10 11  11 12  12 13  13 14  14 15  15 16  16 17  17 18  18 19  19 20  20 21  21 22  22 23  23 24  24 25  25 26  26 27  27 28  28 29  29 30  30 31  31 32  32 33  33 34  34 35  35 36  36 37  37 38  38 39  39 40  40 41  41 42  42 43  43 44  44 45  45 46  46 47  47 48  48 49  49 50  50 51  51 52  52 53  53 54  54 55  55 56  56 57  57 58  58 59  59 60  60 61  61 62  62 63  63 64  64 65  65 66  66 67  67 68  68 69  69 70  70 71  71 72  72 73  73 74  74 75  75 76  76 77  77 78  78 79  79 80  80 81  81 82  82 83  83 84  84 85  85 86  86 87  87 88  88 89  89 90  90 91  91 92  92 93  93 94  94 95  95 96  96 97  97 98  98 99  99 100  </DataArray>
<DataArray  type="UInt32"  Name="offsets"  format="ascii">2 4 6 8 10 12 14 16 18 20 22 24 26 28 30 32 34 36 38 40 42 44 46 48 50 52 54 56 58 60 62 64 66 68 70 72 74 76 78 80 82 84 86 88 90 92 94 96 98 100 102 104 106 108 110 112 114 116 118 120 122 124 126 128 130 132 134 136 138 140 142 144 146 148 150 152 154 156 158 160 162 164 166 168 170 172 174 176 178 180 182 184 186 188 190 192 194 196 198 200 </DataArray>
<DataArray  type="UInt8"  Name="types"  format="ascii">3 3 3 3 3 3 3 3 3 3 3 3 3 3 3 3 3 3 3 3 3 3 3 3 3 3 3 3 3 3 3 3 3 3 3 3 3 3 3 3 3 3 3 3 3 3 3 3 3 3 3 3 3 3 3 3 3 3 3 3 3 3 3 3 3 3 3 3 3 3 3 3 3 3 3 3 3 3 3 3 3 3 3 3 3 3 3 3 3 3 3 3 3 3 3 3 3 3 3 3 </DataArray>
</Cells>
<PointData  Scalars="f_13"> 
<DataArray  type="Float64"  Name="f_13"  format="ascii">1.5571715136818116e+03  1.5740040735284463e+03  1.5937021953784456e+03  1.6163860650764877e+03  1.6421722172957127e+03  1.6711766477236022e+03  1.7035176193936836e+03  1.7393181646158155e+03  1.7787083047792401e+03  1.8218270214350246e+03  1.8688240168179852e+03  1.9198613026795665e+03  1.9751146545949111e+03  2.0347749658827668e+03  2.0990495316662359e+03  2.1681632898716662e+03  2.2423600423939624e+03  2.3219036764050420e+03  2.4070794029200506e+03  2.4981950272812055e+03  2.5955822641566820e+03  2.6995981079479993e+03  2.8106262681109706e+03  2.9290786777766848e+03  3.0553970831653251e+03  3.1900547205752009e+03  3.3335580871646503e+03  3.4864488112926692e+03  3.6493056278167278e+03  3.8227464634392345e+03  4.0074306369269079e+03  4.2040611787827183e+03  4.4133872747135529e+03  4.6362068369958733e+03  4.8733692075859663e+03  5.1257779965417431e+03  5.3943940590114971e+03  5.6802386136944906e+03  5.9843965052824115e+03  6.3080196129437390e+03  6.6523304064097028e+03  7.0186256506558411e+03  7.4082802595427711e+03  7.8227512980794945e+03  8.2635821321989424e+03  8.7324067240851346e+03  9.2309540701619735e+03  9.7610527778432333e+03  1.0324635776050747e+04  1.0923745153332809e+04  1.1560537116158379e+04  1.2237287058626647e+04  1.2956394733419535e+04  1.3720389512341610e+04  1.4531935723244695e+04  1.5393838048531974e+04  1.6309046968790055e+04  1.7280664233421350e+04  1.8311948338460788e+04  1.9406319990081225e+04  2.0567367530647622e+04  2.1798852302601859e+04  2.3104713923987551e+04  2.4489075448104799e+04  2.5956248378678010e+04  2.7510737511099742e+04  2.9157245569874154e+04  3.0900677612443902e+04  3.2746145170297419e+04  3.4698970099815881e+04  3.6764688117985883e+04  3.8949052002203563e+04  4.1258034439358547e+04  4.3697830517762566e+04  4.6274859866997220e+04  4.8995768466318361e+04  5.1867430163054392e+04  5.4896947969979483e+04  5.8091655246838040e+04  6.1459116918440966e+04  6.5007130943031159e+04  6.8743730323601951e+04  7.2677186056026330e+04  7.6816011536594684e+04  8.1168969114218635e+04  8.5745079676498062e+04  9.0553636412367065e+04  9.5604224206187180e+04  1.0090674649833272e+05  1.0647146190451534e+05  1.1230903342774152e+05  1.1843059372686390e+05  1.2484783062191089e+05  1.3157309780616226e+05  1.3861955656947114e+05  1.4600135516329514e+05  1.5373385316589143e+05  1.6183389869478872e+05  1.7032016634791967e+05  1.7921356301672471e+05  1.8853770674400023e+05  </DataArray> 
</PointData> 
</Piece>
</UnstructuredGrid>
</VTKFile>