<?xml version="1.0"?>
<VTKFile type="UnstructuredGrid"  version="0.1"  >
<UnstructuredGrid>
<Piece  NumberOfPoints="101" NumberOfCells="100">
<Points>
<DataArray  type="Float64"  NumberOfComponents="3"  format="ascii">0 0 0  0.01 0 0  0.02 0 0  0.03 0 0  0.04 0 0  0.05 0 0  0.06 0 0  0.07000000000000001 0 0  0.08 0 0  0.09 0 0  0.1 0 0  0.11 0 0  0.12 0 0  0.13 0 0  0.14 0 0  0.15 0 0  0.16 0 0  0.17 0 0  0.18 0 0  0.19 0 0  0.2 0 0  0.21 0 0  0.22 0 0  0.23 0 0  0.24 0 0  0.25 0 0  0.26 0 0  0.27 0 0  0.28 0 0  0.29 0 0  0.3 0 0  0.31 0 0  0.32 0 0  0.33 0 0  0.34 0 0  0.35 0 0  0.36 0 0  0.37 0 0  0.38 0 0  0.39 0 0  0.4 0 0  0.41 0 0  0.42 0 0  0.43 0 0  0.44 0 0  0.45 0 0  0.46 0 0  0.47 0 0  0.48 0 0  0.49 0 0  0.5 0 0  0.51 0 0  0.52 0 0  0.53 0 0  0.54 0 0  0.55 0 0  0.5600000000000001 0 0  0.57 0 0  0.58 0 0  0.59 0 0  0.6 0 0  0.61 0 0  0.62 0 0  0.63 0 0  0.64 0 0  0.65 0 0  0.66 0 0  0.67 0 0  0.68 0 0  0.6899999999999999 0 0  0.7 0 0  0.71 0 0  0.72 0 0  0.73 0 0  0.74 0 0  0.75 0 0  0.76 0 0  0.77 0 0  0.78 0 0  0.79 0 0  0.8 0 0  0.8100000000000001 0 0  0.82 0 0  0.83 0 0  0.84 0 0  0.85 0 0  0.86 0 0  0.87 0 0  0.88 0 0  0.89 0 0  0.9 0 0  0.91 0 0  0.92 0 0  0.93 0 0  0.9399999999999999 0 0  0.95 0 0  0.96 0 0  0.97 0 0  0.98 0 0  0.99 0 0  1 0 0  </DataArray>
</Points>
<Cells>
<DataArray  type="UInt32"  Name="connectivity"  format="ascii">0 1  1 2  2 3  3 4  4 5  5 6  6 7  7 8  8 9  9 10  10 11  11 12  12 13  13 14  14 15  15 16  16 17  17 18  18 19  19 20  20 21  21 22  22 23  23 24  24 25  25 26  26 27  27 28  28 29  29 30  30 31  31 32  32 33  33 34  34 35  35 36  36 37  37 38  38 39  39 40  40 41  41 42  42 43  43 44  44 45  45 46  46 47  47 48  48 49  49 50  50 51  51 52  52 53  53 54  54 55  55 56  56 57  57 58  58 59  59 60  60 61  61 62  62 63  63 64  64 65  65 66  66 67  67 68  68 69  69 70  70 71  71 72  72 73  73 74  74 75  75 76  76 77  77 78  78 79  79 80  80 81  81 82  82 83  83 84  84 85  85 86  86 87  87 88  88 89  89 90  90 91  91 92  92 93  93 94  94 95  95 96  96 97  97 98  98 99  99 100  </DataArray>
<DataArray  type="UInt32"  Name="offsets"  format="ascii">2 4 6 8 10 12 14 16 18 20 22 24 26 28 30 32 34 36 38 40 42 44 46 48 50 52 54 56 58 60 62 64 66 68 70 72 74 76 78 80 82 84 86 88 90 92 94 96 98 100 102 104 106 108 110 112 114 116 118 120 122 124 126 128 130 132 134 136 138 140 142 144 146 148 150 152 154 156 158 160 162 164 166 168 170 172 174 176 178 180 182 184 186 188 190 192 194 196 198 200 </DataArray>
<DataArray  type="UInt8"  Name="types"  format="ascii">3 3 3 3 3 3 3 3 3 3 3 3 3 3 3 3 3 3 3 3 3 3 3 3 3 3 3 3 3 3 3 3 3 3 3 3 3 3 3 3 3 3 3 3 3 3 3 3 3 3 3 3 3 3 3 3 3 3 3 3 3 3 3 3 3 3 3 3 3 3 3 3 3 3 3 3 3 3 3 3 3 3 3 3 3 3 3 3 3 3 3 3 3 3 3 3 3 3 3 3 </DataArray>
</Cells>
<PointData  Scalars="f_13"> 
<DataArray  type="Float64"  Name="f_13"  format="ascii">9.7330889461695733e+02  9.7596560633933200e+02  9.7850667297987331e+02  9.8091917550399262e+02  9.8319745053716611e+02  9.8534094704384779e+02  9.8735262295704740e+02  9.8923776584219172e+02  9.9100314258640856e+02  9.9265640113753045e+02  9.9420566264343302e+02  9.9565925519541486e+02  9.9702555102530607e+02  9.9831287772006556e+02  9.9952948106827921e+02  1.0006835227920050e+03  1.0017831008741975e+03  1.0028362836706523e+03  1.0038511516744376e+03  1.0048358428334838e+03  1.0057985988383713e+03  1.0067478109061741e+03  1.0076920643773979e+03  1.0086401819900976e+03  1.0096012660575374e+03  1.0105847400007096e+03  1.0116003898120888e+03  1.0126584060813401e+03  1.0137694272197767e+03  1.0149445844951346e+03  1.0161955494443423e+03  1.0175345841785831e+03  1.0189745950385918e+03  1.0205291900032128e+03  1.0222127402036583e+03  1.0240404458513301e+03  1.0260284068493631e+03  1.0281936983274575e+03  1.0305544513159150e+03  1.0331299387576491e+03  1.0359406670456979e+03  1.0390084732677344e+03  1.0423566283375608e+03  1.0460099461958607e+03  1.0499948992679354e+03  1.0543397403741646e+03  1.0590746312989638e+03  1.0642317782356297e+03  1.0698455743372708e+03  1.0759527496177243e+03  1.0825925284607486e+03  1.0898067950107159e+03  1.0976402667334696e+03  1.1061406764520186e+03  1.1153589631784685e+03  1.1253494720813251e+03  1.1361701639464736e+03  1.1478828345112977e+03  1.1605533440753456e+03  1.1742518578186257e+03  1.1890530972912359e+03  1.2050366035771212e+03  1.2222870126820555e+03  1.2408943437536539e+03  1.2609543008117960e+03  1.2825685887541729e+03  1.3058452445070100e+03  1.3308989843189481e+03  1.3578515683504299e+03  1.3868321838957570e+03  1.4179778487941619e+03  1.4514338368433525e+03  1.4873541273268206e+03  1.5259018811060550e+03  1.5672499461098250e+03  1.6115813954705559e+03  1.6590901020034235e+03  1.7099813531811938e+03  1.7644725112018502e+03  1.8227937231390747e+03  1.8851886864536500e+03  1.9519154752514294e+03  2.0232474324978050e+03  2.0994741328016908e+03  2.1809024191819644e+03  2.2678575151892314e+03  2.3606842105708420e+03  2.4597481139497309e+03  2.5654369592496723e+03  2.6781619432325792e+03  2.7983590587666181e+03  2.9264903713992903e+03  3.0630451643567098e+03  3.2085408478990930e+03  3.3635234914579023e+03  3.5285677893190446e+03  3.7042762106707664e+03  3.8912770101844508e+03  4.0902206832377310e+03  4.3017743374674401e+03  4.5266133164124603e+03  </DataArray> 
</PointData> 
</Piece>
</UnstructuredGrid>
</VTKFile>