<?xml version="1.0"?>
<VTKFile type="UnstructuredGrid"  version="0.1"  >
<UnstructuredGrid>
<Piece  NumberOfPoints="101" NumberOfCells="100">
<Points>
<DataArray  type="Float64"  NumberOfComponents="3"  format="ascii">0 0 0  0.01 0 0  0.02 0 0  0.03 0 0  0.04 0 0  0.05 0 0  0.06 0 0  0.07000000000000001 0 0  0.08 0 0  0.09 0 0  0.1 0 0  0.11 0 0  0.12 0 0  0.13 0 0  0.14 0 0  0.15 0 0  0.16 0 0  0.17 0 0  0.18 0 0  0.19 0 0  0.2 0 0  0.21 0 0  0.22 0 0  0.23 0 0  0.24 0 0  0.25 0 0  0.26 0 0  0.27 0 0  0.28 0 0  0.29 0 0  0.3 0 0  0.31 0 0  0.32 0 0  0.33 0 0  0.34 0 0  0.35 0 0  0.36 0 0  0.37 0 0  0.38 0 0  0.39 0 0  0.4 0 0  0.41 0 0  0.42 0 0  0.43 0 0  0.44 0 0  0.45 0 0  0.46 0 0  0.47 0 0  0.48 0 0  0.49 0 0  0.5 0 0  0.51 0 0  0.52 0 0  0.53 0 0  0.54 0 0  0.55 0 0  0.5600000000000001 0 0  0.57 0 0  0.58 0 0  0.59 0 0  0.6 0 0  0.61 0 0  0.62 0 0  0.63 0 0  0.64 0 0  0.65 0 0  0.66 0 0  0.67 0 0  0.68 0 0  0.6899999999999999 0 0  0.7 0 0  0.71 0 0  0.72 0 0  0.73 0 0  0.74 0 0  0.75 0 0  0.76 0 0  0.77 0 0  0.78 0 0  0.79 0 0  0.8 0 0  0.8100000000000001 0 0  0.82 0 0  0.83 0 0  0.84 0 0  0.85 0 0  0.86 0 0  0.87 0 0  0.88 0 0  0.89 0 0  0.9 0 0  0.91 0 0  0.92 0 0  0.93 0 0  0.9399999999999999 0 0  0.95 0 0  0.96 0 0  0.97 0 0  0.98 0 0  0.99 0 0  1 0 0  </DataArray>
</Points>
<Cells>
<DataArray  type="UInt32"  Name="connectivity"  format="ascii">0 1  1 2  2 3  3 4  4 5  5 6  6 7  7 8  8 9  9 10  10 11  11 12  12 13  13 14  14 15  15 16  16 17  17 18  18 19  19 20  20 21  21 22  22 23  23 24  24 25  25 26  26 27  27 28  28 29  29 30  30 31  31 32  32 33  33 34  34 35  35 36  36 37  37 38  38 39  39 40  40 41  41 42  42 43  43 44  44 45  45 46  46 47  47 48  48 49  49 50  50 51  51 52  52 53  53 54  54 55  55 56  56 57  57 58  58 59  59 60  60 61  61 62  62 63  63 64  64 65  65 66  66 67  67 68  68 69  69 70  70 71  71 72  72 73  73 74  74 75  75 76  76 77  77 78  78 79  79 80  80 81  81 82  82 83  83 84  84 85  85 86  86 87  87 88  88 89  89 90  90 91  91 92  92 93  93 94  94 95  95 96  96 97  97 98  98 99  99 100  </DataArray>
<DataArray  type="UInt32"  Name="offsets"  format="ascii">2 4 6 8 10 12 14 16 18 20 22 24 26 28 30 32 34 36 38 40 42 44 46 48 50 52 54 56 58 60 62 64 66 68 70 72 74 76 78 80 82 84 86 88 90 92 94 96 98 100 102 104 106 108 110 112 114 116 118 120 122 124 126 128 130 132 134 136 138 140 142 144 146 148 150 152 154 156 158 160 162 164 166 168 170 172 174 176 178 180 182 184 186 188 190 192 194 196 198 200 </DataArray>
<DataArray  type="UInt8"  Name="types"  format="ascii">3 3 3 3 3 3 3 3 3 3 3 3 3 3 3 3 3 3 3 3 3 3 3 3 3 3 3 3 3 3 3 3 3 3 3 3 3 3 3 3 3 3 3 3 3 3 3 3 3 3 3 3 3 3 3 3 3 3 3 3 3 3 3 3 3 3 3 3 3 3 3 3 3 3 3 3 3 3 3 3 3 3 3 3 3 3 3 3 3 3 3 3 3 3 3 3 3 3 3 3 </DataArray>
</Cells>
<PointData  Scalars="f_13"> 
<DataArray  type="Float64"  Name="f_13"  format="ascii">4.2541034410856591e+03  4.2679479921450038e+03  4.2944039089396838e+03  4.3335370281384894e+03  4.3854707754922756e+03  4.4503779982003189e+03  4.5284753560401159e+03  4.6200196490153276e+03  4.7253055975075213e+03  4.8446647006244129e+03  4.9784648851177872e+03  5.1271107254048484e+03  5.2910440685447675e+03  5.4707449394863834e+03  5.6667326339338624e+03  5.8795669307285480e+03  6.1098493742893243e+03  6.3582245916519905e+03  6.6253816190088555e+03  6.9120552201768496e+03  7.2190271847543763e+03  7.5471275973688653e+03  7.8972360717663760e+03  8.2702829448635985e+03  8.6672504265144817e+03  9.0891737008270702e+03  9.5371419745463154e+03  1.0012299467406739e+04  1.0515846338539177e+04  1.1049039542051732e+04  1.1613193603843860e+04  1.2209681310588827e+04  1.2839934300659410e+04  1.3505443545592683e+04  1.4207759709506034e+04  1.4948493372697609e+04  1.5729315104498120e+04  1.6551955369292915e+04  1.7418204248509461e+04  1.8329910960270405e+04  1.9288983157352362e+04  2.0297385983071239e+04  2.1357140863744145e+04  2.2470324015463619e+04  2.3639064642072932e+04  2.4865542800462834e+04  2.6151986908634735e+04  2.7500670871408995e+04  2.8913910798218756e+04  3.0394061287141078e+04  3.1943511249203828e+04  3.3564679247096930e+04  3.5260008322744296e+04  3.7031960288795432e+04  3.8883009460017907e+04  4.0815635801863020e+04  4.2832317475194686e+04  4.4935522758381907e+04  4.7127701330731667e+04  4.9411274904667283e+04  5.1788627198233458e+04  5.4262093244539632e+04  5.6833948040760406e+04  5.9506394546427327e+04  6.2281551049117807e+04  6.5161437925431128e+04  6.8147963836506460e+04  7.1242911410456378e+04  7.4447922479135072e+04  7.7764482953796105e+04  8.1193907443565724e+04  8.4737323742364300e+04  8.8395657333997166e+04  9.2169616091548130e+04  9.6059675375760431e+04  1.0006606376739546e+05  1.0418874969997858e+05  1.0842742929087357e+05  1.1278151569880515e+05  1.1725013036268463e+05  1.2183209649699462e+05  1.2652593522912649e+05  1.3132986475868092e+05  1.3624180289089019e+05  1.4125937323691606e+05  1.4637991527104683e+05  1.5160049827360845e+05  1.5691793894936168e+05  1.6232882216967182e+05  1.6782952381169645e+05  1.7341623402006435e+05  1.7908497834688518e+05  1.8483163307303117e+05  1.9065192950097096e+05  1.9654144004199037e+05  2.0249553638070525e+05  2.0850930674197839e+05  2.1457741513066486e+05  2.2069388014324178e+05  2.2685174429354764e+05  2.3304259642527124e+05  </DataArray> 
</PointData> 
</Piece>
</UnstructuredGrid>
</VTKFile>