<?xml version="1.0"?>
<VTKFile type="UnstructuredGrid"  version="0.1"  >
<UnstructuredGrid>
<Piece  NumberOfPoints="101" NumberOfCells="100">
<Points>
<DataArray  type="Float64"  NumberOfComponents="3"  format="ascii">0 0 0  0.01 0 0  0.02 0 0  0.03 0 0  0.04 0 0  0.05 0 0  0.06 0 0  0.07000000000000001 0 0  0.08 0 0  0.09 0 0  0.1 0 0  0.11 0 0  0.12 0 0  0.13 0 0  0.14 0 0  0.15 0 0  0.16 0 0  0.17 0 0  0.18 0 0  0.19 0 0  0.2 0 0  0.21 0 0  0.22 0 0  0.23 0 0  0.24 0 0  0.25 0 0  0.26 0 0  0.27 0 0  0.28 0 0  0.29 0 0  0.3 0 0  0.31 0 0  0.32 0 0  0.33 0 0  0.34 0 0  0.35 0 0  0.36 0 0  0.37 0 0  0.38 0 0  0.39 0 0  0.4 0 0  0.41 0 0  0.42 0 0  0.43 0 0  0.44 0 0  0.45 0 0  0.46 0 0  0.47 0 0  0.48 0 0  0.49 0 0  0.5 0 0  0.51 0 0  0.52 0 0  0.53 0 0  0.54 0 0  0.55 0 0  0.5600000000000001 0 0  0.57 0 0  0.58 0 0  0.59 0 0  0.6 0 0  0.61 0 0  0.62 0 0  0.63 0 0  0.64 0 0  0.65 0 0  0.66 0 0  0.67 0 0  0.68 0 0  0.6899999999999999 0 0  0.7 0 0  0.71 0 0  0.72 0 0  0.73 0 0  0.74 0 0  0.75 0 0  0.76 0 0  0.77 0 0  0.78 0 0  0.79 0 0  0.8 0 0  0.8100000000000001 0 0  0.82 0 0  0.83 0 0  0.84 0 0  0.85 0 0  0.86 0 0  0.87 0 0  0.88 0 0  0.89 0 0  0.9 0 0  0.91 0 0  0.92 0 0  0.93 0 0  0.9399999999999999 0 0  0.95 0 0  0.96 0 0  0.97 0 0  0.98 0 0  0.99 0 0  1 0 0  </DataArray>
</Points>
<Cells>
<DataArray  type="UInt32"  Name="connectivity"  format="ascii">0 1  1 2  2 3  3 4  4 5  5 6  6 7  7 8  8 9  9 10  10 11  11 12  12 13  13 14  14 15  15 16  16 17  17 18  18 19  19 20  20 21  21 22  22 23  23 24  24 25  25 26  26 27  27 28  28 29  29 30  30 31  31 32  32 33  33 34  34 35  35 36  36 37  37 38  38 39  39 40  40 41  41 42  42 43  43 44  44 45  45 46  46 47  47 48  48 49  49 50  50 51  51 52  52 53  53 54  54 55  55 56  56 57  57 58  58 59  59 60  60 61  61 62  62 63  63 64  64 65  65 66  66 67  67 68  68 69  69 70  70 71  71 72  72 73  73 74  74 75  75 76  76 77  77 78  78 79  79 80  80 81  81 82  82 83  83 84  84 85  85 86  86 87  87 88  88 89  89 90  90 91  91 92  92 93  93 94  94 95  95 96  96 97  97 98  98 99  99 100  </DataArray>
<DataArray  type="UInt32"  Name="offsets"  format="ascii">2 4 6 8 10 12 14 16 18 20 22 24 26 28 30 32 34 36 38 40 42 44 46 48 50 52 54 56 58 60 62 64 66 68 70 72 74 76 78 80 82 84 86 88 90 92 94 96 98 100 102 104 106 108 110 112 114 116 118 120 122 124 126 128 130 132 134 136 138 140 142 144 146 148 150 152 154 156 158 160 162 164 166 168 170 172 174 176 178 180 182 184 186 188 190 192 194 196 198 200 </DataArray>
<DataArray  type="UInt8"  Name="types"  format="ascii">3 3 3 3 3 3 3 3 3 3 3 3 3 3 3 3 3 3 3 3 3 3 3 3 3 3 3 3 3 3 3 3 3 3 3 3 3 3 3 3 3 3 3 3 3 3 3 3 3 3 3 3 3 3 3 3 3 3 3 3 3 3 3 3 3 3 3 3 3 3 3 3 3 3 3 3 3 3 3 3 3 3 3 3 3 3 3 3 3 3 3 3 3 3 3 3 3 3 3 3 </DataArray>
</Cells>
<PointData  Scalars="f_13"> 
<DataArray  type="Float64"  Name="f_13"  format="ascii">4.0020908626196510e+03  4.0159486467356214e+03  4.0410499808030413e+03  4.0776877975993339e+03  4.1261462471878749e+03  4.1867082994462298e+03  4.2596624635503222e+03  4.3453087014789198e+03  4.4439636181051274e+03  4.5559650108065734e+03  4.6816758586136430e+03  4.8214878259968818e+03  4.9758243503377489e+03  5.1451433755189619e+03  5.3299397873068719e+03  5.5307475995391060e+03  5.7481419337433244e+03  5.9827408287985509e+03  6.2352069116647008e+03  6.5062489550715163e+03  6.7966233433759471e+03  7.1071354635523821e+03  7.4386410344482447e+03  7.7920473839871875e+03  8.1683146808988267e+03  8.5684571247614167e+03  8.9935440956259772e+03  9.4447012622122911e+03  9.9231116455955107e+03  1.0430016633406425e+04  1.0966716937820589e+04  1.1534573488986445e+04  1.2135008254018250e+04  1.2769504970236670e+04  1.3439609779962282e+04  1.4146931752841092e+04  1.4893143280395925e+04  1.5679980326244280e+04  1.6509242514196441e+04  1.7382793035242761e+04  1.8302558353254579e+04  1.9270527688059163e+04  2.0288752253407223e+04  2.1359344226235426e+04  2.2484475422541771e+04  2.3666375654144838e+04  2.4907330739598267e+04  2.6209680141589095e+04  2.7575814202275298e+04  2.9008170947227598e+04  3.0509232427950185e+04  3.2081520572381993e+04  3.3727592512346630e+04  3.5450035356649059e+04  3.7251460378439137e+04  3.9134496585609028e+04  4.1101783643402625e+04  4.3155964119135315e+04  4.5299675020007460e+04  4.7535538596508144e+04  4.9866152385927882e+04  5.2294078473120346e+04  5.4821831948991618e+04  5.7451868551384272e+04  6.0186571478231293e+04  6.3028237369279072e+04  6.5979061460561454e+04  6.9041121925435655e+04  7.2216363427711389e+04  7.5506579926627091e+04  7.8913396790639206e+04  8.2438252297763334e+04  8.6082378625213983e+04  8.9846782461109091e+04  9.3732225406940081e+04  9.7739204382387819e+04  1.0186793229505868e+05  1.0611831929813839e+05  1.1048995503027378e+05  1.1498209231579557e+05  1.1959363290142250e+05  1.2432311591967878e+05  1.2916870990133157e+05  1.3412820931115915e+05  1.3919903675519733e+05  1.4437825220506429e+05  1.4966257080755520e+05  1.5504839109656579e+05  1.6053183570007945e+05  1.6610880693712184e+05  1.7177506002676225e+05  1.7752629698031623e+05  1.8335828461359246e+05  1.8926700049003909e+05  1.9524881097559162e+05  2.0130068593378403e+05  2.0742045488907205e+05  2.1360710969961074e+05  2.1986115885351013e+05  2.2618503835605728e+05  2.3258358369483447e+05  </DataArray> 
</PointData> 
</Piece>
</UnstructuredGrid>
</VTKFile>