<?xml version="1.0"?>
<VTKFile type="UnstructuredGrid"  version="0.1"  >
<UnstructuredGrid>
<Piece  NumberOfPoints="101" NumberOfCells="100">
<Points>
<DataArray  type="Float64"  NumberOfComponents="3"  format="ascii">0 0 0  0.01 0 0  0.02 0 0  0.03 0 0  0.04 0 0  0.05 0 0  0.06 0 0  0.07000000000000001 0 0  0.08 0 0  0.09 0 0  0.1 0 0  0.11 0 0  0.12 0 0  0.13 0 0  0.14 0 0  0.15 0 0  0.16 0 0  0.17 0 0  0.18 0 0  0.19 0 0  0.2 0 0  0.21 0 0  0.22 0 0  0.23 0 0  0.24 0 0  0.25 0 0  0.26 0 0  0.27 0 0  0.28 0 0  0.29 0 0  0.3 0 0  0.31 0 0  0.32 0 0  0.33 0 0  0.34 0 0  0.35 0 0  0.36 0 0  0.37 0 0  0.38 0 0  0.39 0 0  0.4 0 0  0.41 0 0  0.42 0 0  0.43 0 0  0.44 0 0  0.45 0 0  0.46 0 0  0.47 0 0  0.48 0 0  0.49 0 0  0.5 0 0  0.51 0 0  0.52 0 0  0.53 0 0  0.54 0 0  0.55 0 0  0.5600000000000001 0 0  0.57 0 0  0.58 0 0  0.59 0 0  0.6 0 0  0.61 0 0  0.62 0 0  0.63 0 0  0.64 0 0  0.65 0 0  0.66 0 0  0.67 0 0  0.68 0 0  0.6899999999999999 0 0  0.7 0 0  0.71 0 0  0.72 0 0  0.73 0 0  0.74 0 0  0.75 0 0  0.76 0 0  0.77 0 0  0.78 0 0  0.79 0 0  0.8 0 0  0.8100000000000001 0 0  0.82 0 0  0.83 0 0  0.84 0 0  0.85 0 0  0.86 0 0  0.87 0 0  0.88 0 0  0.89 0 0  0.9 0 0  0.91 0 0  0.92 0 0  0.93 0 0  0.9399999999999999 0 0  0.95 0 0  0.96 0 0  0.97 0 0  0.98 0 0  0.99 0 0  1 0 0  </DataArray>
</Points>
<Cells>
<DataArray  type="UInt32"  Name="connectivity"  format="ascii">0 1  1 2  2 3  3 4  4 5  5 6  6 7  7 8  8 9  9 10  10 11  11 12  12 13  13 14  14 15  15 16  16 17  17 18  18 19  19 20  20 21  21 22  22 23  23 24  24 25  25 26  26 27  27 28  28 29  29 30  30 31  31 32  32 33  33 34  34 35  35 36  36 37  37 38  38 39  39 40  40 41  41 42  42 43  43 44  44 45  45 46  46 47  47 48  48 49  49 50  50 51  51 52  52 53  53 54  54 55  55 56  56 57  57 58  58 59  59 60  60 61  61 62  62 63  63 64  64 65  65 66  66 67  67 68  68 69  69 70  70 71  71 72  72 73  73 74  74 75  75 76  76 77  77 78  78 79  79 80  80 81  81 82  82 83  83 84  84 85  85 86  86 87  87 88  88 89  89 90  90 91  91 92  92 93  93 94  94 95  95 96  96 97  97 98  98 99  99 100  </DataArray>
<DataArray  type="UInt32"  Name="offsets"  format="ascii">2 4 6 8 10 12 14 16 18 20 22 24 26 28 30 32 34 36 38 40 42 44 46 48 50 52 54 56 58 60 62 64 66 68 70 72 74 76 78 80 82 84 86 88 90 92 94 96 98 100 102 104 106 108 110 112 114 116 118 120 122 124 126 128 130 132 134 136 138 140 142 144 146 148 150 152 154 156 158 160 162 164 166 168 170 172 174 176 178 180 182 184 186 188 190 192 194 196 198 200 </DataArray>
<DataArray  type="UInt8"  Name="types"  format="ascii">3 3 3 3 3 3 3 3 3 3 3 3 3 3 3 3 3 3 3 3 3 3 3 3 3 3 3 3 3 3 3 3 3 3 3 3 3 3 3 3 3 3 3 3 3 3 3 3 3 3 3 3 3 3 3 3 3 3 3 3 3 3 3 3 3 3 3 3 3 3 3 3 3 3 3 3 3 3 3 3 3 3 3 3 3 3 3 3 3 3 3 3 3 3 3 3 3 3 3 3 </DataArray>
</Cells>
<PointData  Scalars="f_13"> 
<DataArray  type="Float64"  Name="f_13"  format="ascii">9.7497029230105773e+02  9.8385612378452311e+02  9.9284075471379117e+02  1.0019174750619613e+03  1.0110953654592169e+03  1.0203948251557355e+03  1.0298443903012228e+03  1.0394784850665992e+03  1.0493358471768768e+03  1.0594584413835180e+03  1.0698907265497453e+03  1.0806791797125297e+03  1.0918720076608392e+03  1.1035189961207934e+03  1.1156714606775986e+03  1.1283822736318314e+03  1.1417059482030343e+03  1.1556987666671184e+03  1.1704189427304748e+03  1.1859268111231686e+03  1.2022850393369538e+03  1.2195588578554998e+03  1.2378163062763647e+03  1.2571284935145077e+03  1.2775698708812972e+03  1.2992185173042797e+03  1.3221564363287928e+03  1.3464698648490221e+03  1.3722495937718070e+03  1.3995913010345469e+03  1.4285958975884541e+03  1.4593698871272022e+03  1.4920257404941688e+03  1.5266822858433165e+03  1.5634651157629698e+03  1.6025070127015892e+03  1.6439483941631283e+03  1.6879377792695473e+03  1.7346322784224324e+03  1.7841981079372529e+03  1.8368111316755308e+03  1.8926574318651101e+03  1.9519339114799329e+03  2.0148489307515276e+03  2.0816229806082947e+03  2.1524893960891945e+03  2.2276951130595194e+03  2.3075014718720818e+03  2.3921850719716431e+03  2.4820386818382972e+03  2.5773722091114942e+03  2.6785137362354144e+03  2.7858106275236401e+03  2.8996307141618040e+03  3.0203635643565644e+03  3.1484218466033917e+03  3.2842427948896770e+03  3.4282897855790488e+03  3.5810540367426415e+03  3.7430564418181930e+03  3.9148495506927243e+03  4.0970197126225794e+03  4.2901893968287477e+03  4.4950197081370297e+03  4.7122131166720119e+03  4.9425164223592183e+03  5.1867239768373893e+03  5.4456811873259849e+03  5.7202883290217806e+03  6.0115046946987441e+03  6.3203531123377979e+03  6.6479248637914698e+03  6.9953850396580037e+03  7.3639783676533116e+03  7.7550355537649557e+03  8.1699801772658693e+03  8.6103361821424296e+03  9.0777360084954180e+03  9.5739294077876057e+03  1.0100792985138880e+04  1.0660340509791236e+04  1.1254734030796964e+04  1.1886295828103046e+04  1.2557521218360558e+04  1.3271092218359665e+04  1.4029892044706237e+04  1.4837020393028808e+04  1.5695809389180056e+04  1.6609840032358316e+04  1.7582958847169568e+04  1.8619294316369247e+04  1.9723272461740336e+04  2.0899630654327921e+04  2.2153428335460881e+04  2.3490052773256826e+04  2.4915217206197409e+04  2.6434947654682608e+04  2.8055553202563129e+04  2.9783572513027812e+04  3.1625686542718897e+04  3.3588583578128688e+04  </DataArray> 
</PointData> 
</Piece>
</UnstructuredGrid>
</VTKFile>