<?xml version="1.0"?>
<VTKFile type="UnstructuredGrid"  version="0.1"  >
<UnstructuredGrid>
<Piece  NumberOfPoints="101" NumberOfCells="100">
<Points>
<DataArray  type="Float64"  NumberOfComponents="3"  format="ascii">0 0 0  0.01 0 0  0.02 0 0  0.03 0 0  0.04 0 0  0.05 0 0  0.06 0 0  0.07000000000000001 0 0  0.08 0 0  0.09 0 0  0.1 0 0  0.11 0 0  0.12 0 0  0.13 0 0  0.14 0 0  0.15 0 0  0.16 0 0  0.17 0 0  0.18 0 0  0.19 0 0  0.2 0 0  0.21 0 0  0.22 0 0  0.23 0 0  0.24 0 0  0.25 0 0  0.26 0 0  0.27 0 0  0.28 0 0  0.29 0 0  0.3 0 0  0.31 0 0  0.32 0 0  0.33 0 0  0.34 0 0  0.35 0 0  0.36 0 0  0.37 0 0  0.38 0 0  0.39 0 0  0.4 0 0  0.41 0 0  0.42 0 0  0.43 0 0  0.44 0 0  0.45 0 0  0.46 0 0  0.47 0 0  0.48 0 0  0.49 0 0  0.5 0 0  0.51 0 0  0.52 0 0  0.53 0 0  0.54 0 0  0.55 0 0  0.5600000000000001 0 0  0.57 0 0  0.58 0 0  0.59 0 0  0.6 0 0  0.61 0 0  0.62 0 0  0.63 0 0  0.64 0 0  0.65 0 0  0.66 0 0  0.67 0 0  0.68 0 0  0.6899999999999999 0 0  0.7 0 0  0.71 0 0  0.72 0 0  0.73 0 0  0.74 0 0  0.75 0 0  0.76 0 0  0.77 0 0  0.78 0 0  0.79 0 0  0.8 0 0  0.8100000000000001 0 0  0.82 0 0  0.83 0 0  0.84 0 0  0.85 0 0  0.86 0 0  0.87 0 0  0.88 0 0  0.89 0 0  0.9 0 0  0.91 0 0  0.92 0 0  0.93 0 0  0.9399999999999999 0 0  0.95 0 0  0.96 0 0  0.97 0 0  0.98 0 0  0.99 0 0  1 0 0  </DataArray>
</Points>
<Cells>
<DataArray  type="UInt32"  Name="connectivity"  format="ascii">0 1  1 2  2 3  3 4  4 5  5 6  6 7  7 8  8 9  9 10  10 11  11 12  12 13  13 14  14 15  15 16  16 17  17 18  18 19  19 20  20 21  21 22  22 23  23 24  24 25  25 26  26 27  27 28  28 29  29 30  30 31  31 32  32 33  33 34  34 35  35 36  36 37  37 38  38 39  39 40  40 41  41 42  42 43  43 44  44 45  45 46  46 47  47 48  48 49  49 50  50 51  51 52  52 53  53 54  54 55  55 56  56 57  57 58  58 59  59 60  60 61  61 62  62 63  63 64  64 65  65 66  66 67  67 68  68 69  69 70  70 71  71 72  72 73  73 74  74 75  75 76  76 77  77 78  78 79  79 80  80 81  81 82  82 83  83 84  84 85  85 86  86 87  87 88  88 89  89 90  90 91  91 92  92 93  93 94  94 95  95 96  96 97  97 98  98 99  99 100  </DataArray>
<DataArray  type="UInt32"  Name="offsets"  format="ascii">2 4 6 8 10 12 14 16 18 20 22 24 26 28 30 32 34 36 38 40 42 44 46 48 50 52 54 56 58 60 62 64 66 68 70 72 74 76 78 80 82 84 86 88 90 92 94 96 98 100 102 104 106 108 110 112 114 116 118 120 122 124 126 128 130 132 134 136 138 140 142 144 146 148 150 152 154 156 158 160 162 164 166 168 170 172 174 176 178 180 182 184 186 188 190 192 194 196 198 200 </DataArray>
<DataArray  type="UInt8"  Name="types"  format="ascii">3 3 3 3 3 3 3 3 3 3 3 3 3 3 3 3 3 3 3 3 3 3 3 3 3 3 3 3 3 3 3 3 3 3 3 3 3 3 3 3 3 3 3 3 3 3 3 3 3 3 3 3 3 3 3 3 3 3 3 3 3 3 3 3 3 3 3 3 3 3 3 3 3 3 3 3 3 3 3 3 3 3 3 3 3 3 3 3 3 3 3 3 3 3 3 3 3 3 3 3 </DataArray>
</Cells>
<PointData  Scalars="f_13"> 
<DataArray  type="Float64"  Name="f_13"  format="ascii">2.8972283936775571e+03  2.9097483764731596e+03  2.9308631467621744e+03  2.9606186128451327e+03  2.9990944252651689e+03  3.0464017928697945e+03  3.1026822860161446e+03  3.1681073681852149e+03  3.2428784583031847e+03  3.3272273751631092e+03  3.4214170542079360e+03  3.5257424572352843e+03  3.6405316188415050e+03  3.7661467909879466e+03  3.9029856601079141e+03  4.0514826206547100e+03  4.2121100957238095e+03  4.3853799000168574e+03  4.5718446434708703e+03  4.7720991757601378e+03  4.9867820729060559e+03  5.2165771676414824e+03  5.4622151251512514e+03  5.7244750654817999e+03  6.0041862333762347e+03  6.3022297156139703e+03  6.6195402051623141e+03  6.9571078106111217e+03  7.3159799084789711e+03  7.6972630350601139e+03  8.1021248135293445e+03  8.5317959110364591e+03  8.9875720195001177e+03  9.4708158527473588e+03  9.9829591515342017e+03  1.0525504686817834e+04  1.1100028250425568e+04  1.1708180620973279e+04  1.2351689491520985e+04  1.3032361344009314e+04  1.3752083253993935e+04  1.4512824607581048e+04  1.5316638710763267e+04  1.6165664269559589e+04  1.7062126717475723e+04  1.8008339364822328e+04  1.9006704342362293e+04  2.0059713309608542e+04  2.1169947895868700e+04  2.2340079839841666e+04  2.3572870791227946e+04  2.4871171735435470e+04  2.6237922000067625e+04  2.7676147799494287e+04  2.9188960271460423e+04  3.0779552957415763e+04  3.2451198676095941e+04  3.4207245737899095e+04  3.6051113445841220e+04  3.7986286827403906e+04  4.0016310540489743e+04  4.2144781896059612e+04  4.4375342939948707e+04  4.6711671536960072e+04  4.9157471401752147e+04  5.1716461023424912e+04  5.4392361434243714e+04  5.7188882777821775e+04  6.0109709638538741e+04  6.3158485102259241e+04  6.6338793528818016e+04  6.9654142029572133e+04  7.3107940658931489e+04  7.6703481347529538e+04  8.0443915626967413e+04  8.4332231222227681e+04  8.8371227618244040e+04  9.2563490741991132e+04  9.6911366940939231e+04  1.0141693648268376e+05  1.0608198684853330e+05  1.1090798614480298e+05  1.1589605700772727e+05  1.2104695142839718e+05  1.2636102696856145e+05  1.3183822487009794e+05  1.3747805057132489e+05  1.4327955711939294e+05  1.4924133189246830e+05  1.5536148689509669e+05  1.6163765263445908e+05  1.6806697518451410e+05  1.7464611544855029e+05  1.8137124877463470e+05  1.8823806188390724e+05  1.9524174244276565e+05  2.0237695443275233e+05  2.0963778961429486e+05  2.1701768169406801e+05  2.2450926513116033e+05  2.3210415469338931e+05  </DataArray> 
</PointData> 
</Piece>
</UnstructuredGrid>
</VTKFile>