<?xml version="1.0"?>
<VTKFile type="UnstructuredGrid"  version="0.1"  >
<UnstructuredGrid>
<Piece  NumberOfPoints="101" NumberOfCells="100">
<Points>
<DataArray  type="Float64"  NumberOfComponents="3"  format="ascii">0 0 0  0.01 0 0  0.02 0 0  0.03 0 0  0.04 0 0  0.05 0 0  0.06 0 0  0.07000000000000001 0 0  0.08 0 0  0.09 0 0  0.1 0 0  0.11 0 0  0.12 0 0  0.13 0 0  0.14 0 0  0.15 0 0  0.16 0 0  0.17 0 0  0.18 0 0  0.19 0 0  0.2 0 0  0.21 0 0  0.22 0 0  0.23 0 0  0.24 0 0  0.25 0 0  0.26 0 0  0.27 0 0  0.28 0 0  0.29 0 0  0.3 0 0  0.31 0 0  0.32 0 0  0.33 0 0  0.34 0 0  0.35 0 0  0.36 0 0  0.37 0 0  0.38 0 0  0.39 0 0  0.4 0 0  0.41 0 0  0.42 0 0  0.43 0 0  0.44 0 0  0.45 0 0  0.46 0 0  0.47 0 0  0.48 0 0  0.49 0 0  0.5 0 0  0.51 0 0  0.52 0 0  0.53 0 0  0.54 0 0  0.55 0 0  0.5600000000000001 0 0  0.57 0 0  0.58 0 0  0.59 0 0  0.6 0 0  0.61 0 0  0.62 0 0  0.63 0 0  0.64 0 0  0.65 0 0  0.66 0 0  0.67 0 0  0.68 0 0  0.6899999999999999 0 0  0.7 0 0  0.71 0 0  0.72 0 0  0.73 0 0  0.74 0 0  0.75 0 0  0.76 0 0  0.77 0 0  0.78 0 0  0.79 0 0  0.8 0 0  0.8100000000000001 0 0  0.82 0 0  0.83 0 0  0.84 0 0  0.85 0 0  0.86 0 0  0.87 0 0  0.88 0 0  0.89 0 0  0.9 0 0  0.91 0 0  0.92 0 0  0.93 0 0  0.9399999999999999 0 0  0.95 0 0  0.96 0 0  0.97 0 0  0.98 0 0  0.99 0 0  1 0 0  </DataArray>
</Points>
<Cells>
<DataArray  type="UInt32"  Name="connectivity"  format="ascii">0 1  1 2  2 3  3 4  4 5  5 6  6 7  7 8  8 9  9 10  10 11  11 12  12 13  13 14  14 15  15 16  16 17  17 18  18 19  19 20  20 21  21 22  22 23  23 24  24 25  25 26  26 27  27 28  28 29  29 30  30 31  31 32  32 33  33 34  34 35  35 36  36 37  37 38  38 39  39 40  40 41  41 42  42 43  43 44  44 45  45 46  46 47  47 48  48 49  49 50  50 51  51 52  52 53  53 54  54 55  55 56  56 57  57 58  58 59  59 60  60 61  61 62  62 63  63 64  64 65  65 66  66 67  67 68  68 69  69 70  70 71  71 72  72 73  73 74  74 75  75 76  76 77  77 78  78 79  79 80  80 81  81 82  82 83  83 84  84 85  85 86  86 87  87 88  88 89  89 90  90 91  91 92  92 93  93 94  94 95  95 96  96 97  97 98  98 99  99 100  </DataArray>
<DataArray  type="UInt32"  Name="offsets"  format="ascii">2 4 6 8 10 12 14 16 18 20 22 24 26 28 30 32 34 36 38 40 42 44 46 48 50 52 54 56 58 60 62 64 66 68 70 72 74 76 78 80 82 84 86 88 90 92 94 96 98 100 102 104 106 108 110 112 114 116 118 120 122 124 126 128 130 132 134 136 138 140 142 144 146 148 150 152 154 156 158 160 162 164 166 168 170 172 174 176 178 180 182 184 186 188 190 192 194 196 198 200 </DataArray>
<DataArray  type="UInt8"  Name="types"  format="ascii">3 3 3 3 3 3 3 3 3 3 3 3 3 3 3 3 3 3 3 3 3 3 3 3 3 3 3 3 3 3 3 3 3 3 3 3 3 3 3 3 3 3 3 3 3 3 3 3 3 3 3 3 3 3 3 3 3 3 3 3 3 3 3 3 3 3 3 3 3 3 3 3 3 3 3 3 3 3 3 3 3 3 3 3 3 3 3 3 3 3 3 3 3 3 3 3 3 3 3 3 </DataArray>
</Cells>
<PointData  Scalars="f_13"> 
<DataArray  type="Float64"  Name="f_13"  format="ascii">9.8711356265873303e+02  9.9034714735938451e+02  9.9371127907697996e+02  9.9724832297346711e+02  1.0009943263648242e+03  1.0049799713629168e+03  1.0092315820017083e+03  1.0137721073765816e+03  1.0186220360195970e+03  1.0238002192542125e+03  1.0293245958894745e+03  1.0352128197179300e+03  1.0414827966066623e+03  1.0481531407592763e+03  1.0552435608583087e+03  1.0627751868871756e+03  1.0707708479008568e+03  1.0792553101497469e+03  1.0882554839483469e+03  1.0978006066383350e+03  1.1079224079955557e+03  1.1186552635123658e+03  1.1300363401694021e+03  1.1421057385996498e+03  1.1549066349400262e+03  1.1684854251542745e+03  1.1828918741862337e+03  1.1981792719541709e+03  1.2144045979146215e+03  1.2316286956985293e+03  1.2499164591447254e+03  1.2693370309183190e+03  1.2899640147977293e+03  1.3118757026381459e+03  1.3351553169663173e+03  1.3598912701275824e+03  1.3861774408874792e+03  1.4141134693841248e+03  1.4438050713313125e+03  1.4753643723837499e+03  1.5089102635931865e+03  1.5445687789056924e+03  1.5824734956745885e+03  1.6227659591891825e+03  1.6655961322453188e+03  1.7111228708086919e+03  1.7595144268448635e+03  1.8109489794099873e+03  1.8656151951124480e+03  1.9237128190670967e+03  1.9854532974697452e+03  2.0510604329192938e+03  2.1207710736077511e+03  2.1948358374839518e+03  2.2735198724747074e+03  2.3571036538173785e+03  2.4458838195206786e+03  2.5401740449266040e+03  2.6403059572968555e+03  2.7466300912938723e+03  2.8595168861723100e+03  2.9793577254451920e+03  3.1065660197451848e+03  3.2415783335722558e+03  3.3848555566132595e+03  3.5368841203482539e+03  3.6981772607373891e+03  3.8692763279297747e+03  4.0507521441756767e+03  4.2432064114856421e+03  4.4472731711022088e+03  4.6636203175785022e+03  4.8929511712512995e+03  5.1360061142257355e+03  5.3935642967428148e+03  5.6664454230872025e+03  5.9555116291421900e+03  6.2616694674694463e+03  6.5858720205723457e+03  6.9291211690174614e+03  7.2924700486016627e+03  7.6770257400645896e+03  8.0839522462997847e+03  8.5144738259881869e+03  8.9698787694625571e+03  9.4515237228078604e+03  9.9608386900674650e+03  1.0499332871214710e+04  1.1068601525323214e+04  1.1670334083848393e+04  1.2306323777291062e+04  1.2978479078080087e+04  1.3688837300341964e+04  1.4439580728513942e+04  1.5233055664007556e+04  1.6071794771027669e+04  1.6958543052530571e+04  1.7896287671073107e+04  1.8888291612680125e+04  1.9938130826695877e+04  2.1049733894045279e+04  </DataArray> 
</PointData> 
</Piece>
</UnstructuredGrid>
</VTKFile>