<?xml version="1.0"?>
<VTKFile type="UnstructuredGrid"  version="0.1"  >
<UnstructuredGrid>
<Piece  NumberOfPoints="101" NumberOfCells="100">
<Points>
<DataArray  type="Float64"  NumberOfComponents="3"  format="ascii">0 0 0  0.01 0 0  0.02 0 0  0.03 0 0  0.04 0 0  0.05 0 0  0.06 0 0  0.07000000000000001 0 0  0.08 0 0  0.09 0 0  0.1 0 0  0.11 0 0  0.12 0 0  0.13 0 0  0.14 0 0  0.15 0 0  0.16 0 0  0.17 0 0  0.18 0 0  0.19 0 0  0.2 0 0  0.21 0 0  0.22 0 0  0.23 0 0  0.24 0 0  0.25 0 0  0.26 0 0  0.27 0 0  0.28 0 0  0.29 0 0  0.3 0 0  0.31 0 0  0.32 0 0  0.33 0 0  0.34 0 0  0.35 0 0  0.36 0 0  0.37 0 0  0.38 0 0  0.39 0 0  0.4 0 0  0.41 0 0  0.42 0 0  0.43 0 0  0.44 0 0  0.45 0 0  0.46 0 0  0.47 0 0  0.48 0 0  0.49 0 0  0.5 0 0  0.51 0 0  0.52 0 0  0.53 0 0  0.54 0 0  0.55 0 0  0.5600000000000001 0 0  0.57 0 0  0.58 0 0  0.59 0 0  0.6 0 0  0.61 0 0  0.62 0 0  0.63 0 0  0.64 0 0  0.65 0 0  0.66 0 0  0.67 0 0  0.68 0 0  0.6899999999999999 0 0  0.7 0 0  0.71 0 0  0.72 0 0  0.73 0 0  0.74 0 0  0.75 0 0  0.76 0 0  0.77 0 0  0.78 0 0  0.79 0 0  0.8 0 0  0.8100000000000001 0 0  0.82 0 0  0.83 0 0  0.84 0 0  0.85 0 0  0.86 0 0  0.87 0 0  0.88 0 0  0.89 0 0  0.9 0 0  0.91 0 0  0.92 0 0  0.93 0 0  0.9399999999999999 0 0  0.95 0 0  0.96 0 0  0.97 0 0  0.98 0 0  0.99 0 0  1 0 0  </DataArray>
</Points>
<Cells>
<DataArray  type="UInt32"  Name="connectivity"  format="ascii">0 1  1 2  2 3  3 4  4 5  5 6  6 7  7 8  8 9  9 10  10 11  11 12  12 13  13 14  14 15  15 16  16 17  17 18  18 19  19 20  20 21  21 22  22 23  23 24  24 25  25 26  26 27  27 28  28 29  29 30  30 31  31 32  32 33  33 34  34 35  35 36  36 37  37 38  38 39  39 40  40 41  41 42  42 43  43 44  44 45  45 46  46 47  47 48  48 49  49 50  50 51  51 52  52 53  53 54  54 55  55 56  56 57  57 58  58 59  59 60  60 61  61 62  62 63  63 64  64 65  65 66  66 67  67 68  68 69  69 70  70 71  71 72  72 73  73 74  74 75  75 76  76 77  77 78  78 79  79 80  80 81  81 82  82 83  83 84  84 85  85 86  86 87  87 88  88 89  89 90  90 91  91 92  92 93  93 94  94 95  95 96  96 97  97 98  98 99  99 100  </DataArray>
<DataArray  type="UInt32"  Name="offsets"  format="ascii">2 4 6 8 10 12 14 16 18 20 22 24 26 28 30 32 34 36 38 40 42 44 46 48 50 52 54 56 58 60 62 64 66 68 70 72 74 76 78 80 82 84 86 88 90 92 94 96 98 100 102 104 106 108 110 112 114 116 118 120 122 124 126 128 130 132 134 136 138 140 142 144 146 148 150 152 154 156 158 160 162 164 166 168 170 172 174 176 178 180 182 184 186 188 190 192 194 196 198 200 </DataArray>
<DataArray  type="UInt8"  Name="types"  format="ascii">3 3 3 3 3 3 3 3 3 3 3 3 3 3 3 3 3 3 3 3 3 3 3 3 3 3 3 3 3 3 3 3 3 3 3 3 3 3 3 3 3 3 3 3 3 3 3 3 3 3 3 3 3 3 3 3 3 3 3 3 3 3 3 3 3 3 3 3 3 3 3 3 3 3 3 3 3 3 3 3 3 3 3 3 3 3 3 3 3 3 3 3 3 3 3 3 3 3 3 3 </DataArray>
</Cells>
<PointData  Scalars="f_13"> 
<DataArray  type="Float64"  Name="f_13"  format="ascii">9.8718598574064868e+02  9.9140519580594230e+02  9.9567665581797883e+02  1.0000457574120918e+03  1.0045541501586155e+03  1.0092400160240973e+03  1.0141384390519856e+03  1.0192818387821059e+03  1.0247004400682345e+03  1.0304227570661296e+03  1.0364760743452925e+03  1.0428869128306883e+03  1.0496814723716830e+03  1.0568860460918897e+03  1.0645274043167124e+03  1.0726331478761615e+03  1.0812320320318217e+03  1.0903542632761423e+03  1.1000317718919644e+03  1.1102984635226628e+03  1.1211904531587290e+03  1.1327462849529416e+03  1.1450071411799547e+03  1.1580170434934391e+03  1.1718230494325755e+03  1.1864754469102115e+03  1.2020279491921997e+03  1.2185378926615813e+03  1.2360664394591304e+03  1.2546787869074660e+03  1.2744443854616113e+03  1.2954371667852854e+03  1.3177357834290935e+03  1.3414238614832143e+03  1.3665902674918111e+03  1.3933293908476335e+03  1.4217414428313693e+03  1.4519327734195303e+03  1.4840162069552703e+03  1.5181113977568800e+03  1.5543452067272442e+03  1.5928521000228288e+03  1.6337745708414930e+03  1.6772635853933987e+03  1.7234790541275206e+03  1.7725903292968189e+03  1.8247767299573436e+03  1.8802280955098508e+03  1.9391453689065754e+03  2.0017412106605486e+03  2.0682406448104271e+03  2.1388817380107021e+03  2.2139163129362669e+03  2.2936106972129528e+03  2.3782465091136673e+03  2.4681214812957423e+03  2.5635503239022673e+03  2.6648656284128824e+03  2.7724188137130232e+03  2.8865811159616528e+03  3.0077446239844444e+03  3.1363233621120967e+03  3.2727544226344908e+03  3.4174991503653619e+03  3.5710443822268608e+03  3.7339037452899361e+03  3.9066190173697842e+03  4.0897615551050199e+03  4.2839337954788934e+03  4.4897708380103722e+03  4.7079421163976667e+03  4.9391531702884322e+03  5.1841475301377104e+03  5.4437087308610789e+03  5.7186624732673845e+03  6.0098789561385656e+03  6.3182754063929187e+03  6.6448188401030047e+03  6.9905290933175074e+03  7.3564821687263702e+03  7.7438139522622441e+03  8.1537243627736198e+03  8.5874820079192941e+03  9.0464294303444985e+03  9.5319890398482930e+03  1.0045669839372620e+04  1.0589075064825302e+04  1.1163910870401172e+04  1.1771996201373324e+04  1.2415274004210047e+04  1.3095823927948051e+04  1.3815876669304505e+04  1.4577830104996034e+04  1.5384267335830538e+04  1.6237976735879975e+04  1.7141974054078226e+04  1.8099526553148920e+04  1.9114179091435333e+04  2.0189781959126020e+04  2.1330520178129871e+04  2.2540943878270453e+04  </DataArray> 
</PointData> 
</Piece>
</UnstructuredGrid>
</VTKFile>