<?xml version="1.0"?>
<VTKFile type="UnstructuredGrid"  version="0.1"  >
<UnstructuredGrid>
<Piece  NumberOfPoints="101" NumberOfCells="100">
<Points>
<DataArray  type="Float64"  NumberOfComponents="3"  format="ascii">0 0 0  0.01 0 0  0.02 0 0  0.03 0 0  0.04 0 0  0.05 0 0  0.06 0 0  0.07000000000000001 0 0  0.08 0 0  0.09 0 0  0.1 0 0  0.11 0 0  0.12 0 0  0.13 0 0  0.14 0 0  0.15 0 0  0.16 0 0  0.17 0 0  0.18 0 0  0.19 0 0  0.2 0 0  0.21 0 0  0.22 0 0  0.23 0 0  0.24 0 0  0.25 0 0  0.26 0 0  0.27 0 0  0.28 0 0  0.29 0 0  0.3 0 0  0.31 0 0  0.32 0 0  0.33 0 0  0.34 0 0  0.35 0 0  0.36 0 0  0.37 0 0  0.38 0 0  0.39 0 0  0.4 0 0  0.41 0 0  0.42 0 0  0.43 0 0  0.44 0 0  0.45 0 0  0.46 0 0  0.47 0 0  0.48 0 0  0.49 0 0  0.5 0 0  0.51 0 0  0.52 0 0  0.53 0 0  0.54 0 0  0.55 0 0  0.5600000000000001 0 0  0.57 0 0  0.58 0 0  0.59 0 0  0.6 0 0  0.61 0 0  0.62 0 0  0.63 0 0  0.64 0 0  0.65 0 0  0.66 0 0  0.67 0 0  0.68 0 0  0.6899999999999999 0 0  0.7 0 0  0.71 0 0  0.72 0 0  0.73 0 0  0.74 0 0  0.75 0 0  0.76 0 0  0.77 0 0  0.78 0 0  0.79 0 0  0.8 0 0  0.8100000000000001 0 0  0.82 0 0  0.83 0 0  0.84 0 0  0.85 0 0  0.86 0 0  0.87 0 0  0.88 0 0  0.89 0 0  0.9 0 0  0.91 0 0  0.92 0 0  0.93 0 0  0.9399999999999999 0 0  0.95 0 0  0.96 0 0  0.97 0 0  0.98 0 0  0.99 0 0  1 0 0  </DataArray>
</Points>
<Cells>
<DataArray  type="UInt32"  Name="connectivity"  format="ascii">0 1  1 2  2 3  3 4  4 5  5 6  6 7  7 8  8 9  9 10  10 11  11 12  12 13  13 14  14 15  15 16  16 17  17 18  18 19  19 20  20 21  21 22  22 23  23 24  24 25  25 26  26 27  27 28  28 29  29 30  30 31  31 32  32 33  33 34  34 35  35 36  36 37  37 38  38 39  39 40  40 41  41 42  42 43  43 44  44 45  45 46  46 47  47 48  48 49  49 50  50 51  51 52  52 53  53 54  54 55  55 56  56 57  57 58  58 59  59 60  60 61  61 62  62 63  63 64  64 65  65 66  66 67  67 68  68 69  69 70  70 71  71 72  72 73  73 74  74 75  75 76  76 77  77 78  78 79  79 80  80 81  81 82  82 83  83 84  84 85  85 86  86 87  87 88  88 89  89 90  90 91  91 92  92 93  93 94  94 95  95 96  96 97  97 98  98 99  99 100  </DataArray>
<DataArray  type="UInt32"  Name="offsets"  format="ascii">2 4 6 8 10 12 14 16 18 20 22 24 26 28 30 32 34 36 38 40 42 44 46 48 50 52 54 56 58 60 62 64 66 68 70 72 74 76 78 80 82 84 86 88 90 92 94 96 98 100 102 104 106 108 110 112 114 116 118 120 122 124 126 128 130 132 134 136 138 140 142 144 146 148 150 152 154 156 158 160 162 164 166 168 170 172 174 176 178 180 182 184 186 188 190 192 194 196 198 200 </DataArray>
<DataArray  type="UInt8"  Name="types"  format="ascii">3 3 3 3 3 3 3 3 3 3 3 3 3 3 3 3 3 3 3 3 3 3 3 3 3 3 3 3 3 3 3 3 3 3 3 3 3 3 3 3 3 3 3 3 3 3 3 3 3 3 3 3 3 3 3 3 3 3 3 3 3 3 3 3 3 3 3 3 3 3 3 3 3 3 3 3 3 3 3 3 3 3 3 3 3 3 3 3 3 3 3 3 3 3 3 3 3 3 3 3 </DataArray>
</Cells>
<PointData  Scalars="f_13"> 
<DataArray  type="Float64"  Name="f_13"  format="ascii">1.0372858058755123e+03  1.0339090478982446e+03  1.0307283738597218e+03  1.0277482686799058e+03  1.0249709220630887e+03  1.0223961258721365e+03  1.0200213453267290e+03  1.0178419162533593e+03  1.0158513239948527e+03  1.0140415263460681e+03  1.0124032907534045e+03  1.0109265237033768e+03  1.0096005770591235e+03  1.0084145218018725e+03  1.0073573841477778e+03  1.0064183424186700e+03  1.0055868854906937e+03  1.0048529352922875e+03  1.0042069368356792e+03  1.0036399197926061e+03  1.0031435357934751e+03  1.0027100755457243e+03  1.0023324696165170e+03  1.0020042763728515e+03  1.0017196601680195e+03  1.0014733624429022e+03  1.0012606679987202e+03  1.0010773683109355e+03  1.0009197234018764e+03  1.0007844234774162e+03  1.0006685512622709e+03  1.0005695457384519e+03  1.0004851677998407e+03  1.0004134681795151e+03  1.0003527578817194e+03  1.0003015812534486e+03  1.0002586917578104e+03  1.0002230304592246e+03  1.0001937071959979e+03  1.0001699843961518e+03  1.0001512634852580e+03  1.0001370738385147e+03  1.0001270642418025e+03  1.0001209968468028e+03  1.0001187436325179e+03  1.0001202854191338e+03  1.0001257135197288e+03  1.0001352341607706e+03  1.0001491758537127e+03  1.0001679999575796e+03  1.0001923147365849e+03  1.0002228932881096e+03  1.0002606957953544e+03  1.0003068966463433e+03  1.0003629170573852e+03  1.0004304639452400e+03  1.0005115759086812e+03  1.0006086773073454e+03  1.0007246415639402e+03  1.0008628649649683e+03  1.0010273523946223e+03  1.0012228166053408e+03  1.0014547928049001e+03  1.0017297705211239e+03  1.0020553448874361e+03  1.0024403896702495e+03  1.0028952545255144e+03  1.0034319891175157e+03  1.0040645968466013e+03  1.0048093209994884e+03  1.0056849661383993e+03  1.0067132574620726e+03  1.0079192406772447e+03  1.0093317245836744e+03  1.0109837680649596e+03  1.0129132124526770e+03  1.0151632592502652e+03  1.0177830919201338e+03  1.0208285388058712e+03  1.0243627722354477e+03  1.0284570363899497e+03  1.0331913935944440e+03  1.0386554752784805e+03  1.0449492199745803e+03  1.0521835764220771e+03  1.0604811452205929e+03  1.0699767277006401e+03  1.0808177460054487e+03  1.0931644941758964e+03  1.1071901768005064e+03  1.1230806901895573e+03  1.1410341018777988e+03  1.1612597885401649e+03  1.1839772012404887e+03  1.2094142415051920e+03  1.2378052531118292e+03  1.2693886634380058e+03  1.3044043446601859e+03  1.3430908074463414e+03  1.3856823838694868e+03  1.4324065936356801e+03  </DataArray> 
</PointData> 
</Piece>
</UnstructuredGrid>
</VTKFile>