<?xml version="1.0"?>
<VTKFile type="UnstructuredGrid"  version="0.1"  >
<UnstructuredGrid>
<Piece  NumberOfPoints="101" NumberOfCells="100">
<Points>
<DataArray  type="Float64"  NumberOfComponents="3"  format="ascii">0 0 0  0.01 0 0  0.02 0 0  0.03 0 0  0.04 0 0  0.05 0 0  0.06 0 0  0.07000000000000001 0 0  0.08 0 0  0.09 0 0  0.1 0 0  0.11 0 0  0.12 0 0  0.13 0 0  0.14 0 0  0.15 0 0  0.16 0 0  0.17 0 0  0.18 0 0  0.19 0 0  0.2 0 0  0.21 0 0  0.22 0 0  0.23 0 0  0.24 0 0  0.25 0 0  0.26 0 0  0.27 0 0  0.28 0 0  0.29 0 0  0.3 0 0  0.31 0 0  0.32 0 0  0.33 0 0  0.34 0 0  0.35 0 0  0.36 0 0  0.37 0 0  0.38 0 0  0.39 0 0  0.4 0 0  0.41 0 0  0.42 0 0  0.43 0 0  0.44 0 0  0.45 0 0  0.46 0 0  0.47 0 0  0.48 0 0  0.49 0 0  0.5 0 0  0.51 0 0  0.52 0 0  0.53 0 0  0.54 0 0  0.55 0 0  0.5600000000000001 0 0  0.57 0 0  0.58 0 0  0.59 0 0  0.6 0 0  0.61 0 0  0.62 0 0  0.63 0 0  0.64 0 0  0.65 0 0  0.66 0 0  0.67 0 0  0.68 0 0  0.6899999999999999 0 0  0.7 0 0  0.71 0 0  0.72 0 0  0.73 0 0  0.74 0 0  0.75 0 0  0.76 0 0  0.77 0 0  0.78 0 0  0.79 0 0  0.8 0 0  0.8100000000000001 0 0  0.82 0 0  0.83 0 0  0.84 0 0  0.85 0 0  0.86 0 0  0.87 0 0  0.88 0 0  0.89 0 0  0.9 0 0  0.91 0 0  0.92 0 0  0.93 0 0  0.9399999999999999 0 0  0.95 0 0  0.96 0 0  0.97 0 0  0.98 0 0  0.99 0 0  1 0 0  </DataArray>
</Points>
<Cells>
<DataArray  type="UInt32"  Name="connectivity"  format="ascii">0 1  1 2  2 3  3 4  4 5  5 6  6 7  7 8  8 9  9 10  10 11  11 12  12 13  13 14  14 15  15 16  16 17  17 18  18 19  19 20  20 21  21 22  22 23  23 24  24 25  25 26  26 27  27 28  28 29  29 30  30 31  31 32  32 33  33 34  34 35  35 36  36 37  37 38  38 39  39 40  40 41  41 42  42 43  43 44  44 45  45 46  46 47  47 48  48 49  49 50  50 51  51 52  52 53  53 54  54 55  55 56  56 57  57 58  58 59  59 60  60 61  61 62  62 63  63 64  64 65  65 66  66 67  67 68  68 69  69 70  70 71  71 72  72 73  73 74  74 75  75 76  76 77  77 78  78 79  79 80  80 81  81 82  82 83  83 84  84 85  85 86  86 87  87 88  88 89  89 90  90 91  91 92  92 93  93 94  94 95  95 96  96 97  97 98  98 99  99 100  </DataArray>
<DataArray  type="UInt32"  Name="offsets"  format="ascii">2 4 6 8 10 12 14 16 18 20 22 24 26 28 30 32 34 36 38 40 42 44 46 48 50 52 54 56 58 60 62 64 66 68 70 72 74 76 78 80 82 84 86 88 90 92 94 96 98 100 102 104 106 108 110 112 114 116 118 120 122 124 126 128 130 132 134 136 138 140 142 144 146 148 150 152 154 156 158 160 162 164 166 168 170 172 174 176 178 180 182 184 186 188 190 192 194 196 198 200 </DataArray>
<DataArray  type="UInt8"  Name="types"  format="ascii">3 3 3 3 3 3 3 3 3 3 3 3 3 3 3 3 3 3 3 3 3 3 3 3 3 3 3 3 3 3 3 3 3 3 3 3 3 3 3 3 3 3 3 3 3 3 3 3 3 3 3 3 3 3 3 3 3 3 3 3 3 3 3 3 3 3 3 3 3 3 3 3 3 3 3 3 3 3 3 3 3 3 3 3 3 3 3 3 3 3 3 3 3 3 3 3 3 3 3 3 </DataArray>
</Cells>
<PointData  Scalars="f_13"> 
<DataArray  type="Float64"  Name="f_13"  format="ascii">9.6706210035607228e+02  9.6861490587550247e+02  9.7026946942034510e+02  9.7201568070143969e+02  9.7384107968539945e+02  9.7573248567870951e+02  9.7767708001788833e+02  9.7966310102909142e+02  9.8168026667409254e+02  9.8372000843216654e+02  9.8577557659004981e+02  9.8784206003689019e+02  9.8991635124106654e+02  9.9199707808859932e+02  9.9408451777151618e+02  9.9618050325012280e+02  9.9828832947569447e+02  1.0004126641831599e+03  1.0025594663794866e+03  1.0047359144683865e+03  1.0069503451249640e+03  1.0092122034635597e+03  1.0115320046552555e+03  1.0139213068958940e+03  1.0163926954634135e+03  1.0189597775078644e+03  1.0216371871693262e+03  1.0244406006042072e+03  1.0273867605090757e+03  1.0304935097560531e+03  1.0337798337896470e+03  1.0372659114779558e+03  1.0409731741586781e+03  1.0449243726703237e+03  1.0491436522100344e+03  1.0536566349104605e+03  1.0584905100785229e+03  1.0636741320881595e+03  1.0692381259670237e+03  1.0752150007634511e+03  1.0816392708247590e+03  1.0885475851611684e+03  1.0959788651113561e+03  1.1039744505660055e+03  1.1125782550448071e+03  1.1218369299602591e+03  1.1318000384384368e+03  1.1425202391026337e+03  1.1540534802604507e+03  1.1664592049684070e+03  1.1798005674803485e+03  1.1941446616165358e+03  1.2095627616190097e+03  1.2261305760851299e+03  1.2439285155944863e+03  1.2630419746639357e+03  1.2835616286803795e+03  1.3055837464700098e+03  1.3292105191647927e+03  1.3545504060204623e+03  1.3817184978235480e+03  1.4108368984960123e+03  1.4420351254627897e+03  1.4754505292874589e+03  1.5112287330018421e+03  1.5495240914536337e+03  1.5905001708691655e+03  1.6343302486729035e+03  1.6811978334178741e+03  1.7312972044586015e+03  1.7848339707369378e+03  1.8420256477482953e+03  1.9031022514085805e+03  1.9683069071485106e+03  2.0378964721211662e+03  2.1121421679212781e+03  2.1913302206841022e+03  2.2757625048645496e+03  2.3657571864053166e+03  2.4616493604052775e+03  2.5637916778258432e+03  2.6725549552676257e+03  2.7883287614776837e+03  2.9115219741034261e+03  3.0425633004287715e+03  3.1819017566055704e+03  3.3300071015034309e+03  3.4873702241322035e+03  3.6545034881879437e+03  3.8319410443960514e+03  4.0202391320328193e+03  4.2199764067642227e+03  4.4317543547689720e+03  4.6561978857850791e+03  4.8939562440256632e+03  5.1457044410064300e+03  5.4121455051964795e+03  5.6940139694560885e+03  5.9920811910816064e+03  6.3071633377831049e+03  6.6401331984384869e+03  </DataArray> 
</PointData> 
</Piece>
</UnstructuredGrid>
</VTKFile>