<?xml version="1.0"?>
<VTKFile type="UnstructuredGrid"  version="0.1"  >
<UnstructuredGrid>
<Piece  NumberOfPoints="101" NumberOfCells="100">
<Points>
<DataArray  type="Float64"  NumberOfComponents="3"  format="ascii">0 0 0  0.01 0 0  0.02 0 0  0.03 0 0  0.04 0 0  0.05 0 0  0.06 0 0  0.07000000000000001 0 0  0.08 0 0  0.09 0 0  0.1 0 0  0.11 0 0  0.12 0 0  0.13 0 0  0.14 0 0  0.15 0 0  0.16 0 0  0.17 0 0  0.18 0 0  0.19 0 0  0.2 0 0  0.21 0 0  0.22 0 0  0.23 0 0  0.24 0 0  0.25 0 0  0.26 0 0  0.27 0 0  0.28 0 0  0.29 0 0  0.3 0 0  0.31 0 0  0.32 0 0  0.33 0 0  0.34 0 0  0.35 0 0  0.36 0 0  0.37 0 0  0.38 0 0  0.39 0 0  0.4 0 0  0.41 0 0  0.42 0 0  0.43 0 0  0.44 0 0  0.45 0 0  0.46 0 0  0.47 0 0  0.48 0 0  0.49 0 0  0.5 0 0  0.51 0 0  0.52 0 0  0.53 0 0  0.54 0 0  0.55 0 0  0.5600000000000001 0 0  0.57 0 0  0.58 0 0  0.59 0 0  0.6 0 0  0.61 0 0  0.62 0 0  0.63 0 0  0.64 0 0  0.65 0 0  0.66 0 0  0.67 0 0  0.68 0 0  0.6899999999999999 0 0  0.7 0 0  0.71 0 0  0.72 0 0  0.73 0 0  0.74 0 0  0.75 0 0  0.76 0 0  0.77 0 0  0.78 0 0  0.79 0 0  0.8 0 0  0.8100000000000001 0 0  0.82 0 0  0.83 0 0  0.84 0 0  0.85 0 0  0.86 0 0  0.87 0 0  0.88 0 0  0.89 0 0  0.9 0 0  0.91 0 0  0.92 0 0  0.93 0 0  0.9399999999999999 0 0  0.95 0 0  0.96 0 0  0.97 0 0  0.98 0 0  0.99 0 0  1 0 0  </DataArray>
</Points>
<Cells>
<DataArray  type="UInt32"  Name="connectivity"  format="ascii">0 1  1 2  2 3  3 4  4 5  5 6  6 7  7 8  8 9  9 10  10 11  11 12  12 13  13 14  14 15  15 16  16 17  17 18  18 19  19 20  20 21  21 22  22 23  23 24  24 25  25 26  26 27  27 28  28 29  29 30  30 31  31 32  32 33  33 34  34 35  35 36  36 37  37 38  38 39  39 40  40 41  41 42  42 43  43 44  44 45  45 46  46 47  47 48  48 49  49 50  50 51  51 52  52 53  53 54  54 55  55 56  56 57  57 58  58 59  59 60  60 61  61 62  62 63  63 64  64 65  65 66  66 67  67 68  68 69  69 70  70 71  71 72  72 73  73 74  74 75  75 76  76 77  77 78  78 79  79 80  80 81  81 82  82 83  83 84  84 85  85 86  86 87  87 88  88 89  89 90  90 91  91 92  92 93  93 94  94 95  95 96  96 97  97 98  98 99  99 100  </DataArray>
<DataArray  type="UInt32"  Name="offsets"  format="ascii">2 4 6 8 10 12 14 16 18 20 22 24 26 28 30 32 34 36 38 40 42 44 46 48 50 52 54 56 58 60 62 64 66 68 70 72 74 76 78 80 82 84 86 88 90 92 94 96 98 100 102 104 106 108 110 112 114 116 118 120 122 124 126 128 130 132 134 136 138 140 142 144 146 148 150 152 154 156 158 160 162 164 166 168 170 172 174 176 178 180 182 184 186 188 190 192 194 196 198 200 </DataArray>
<DataArray  type="UInt8"  Name="types"  format="ascii">3 3 3 3 3 3 3 3 3 3 3 3 3 3 3 3 3 3 3 3 3 3 3 3 3 3 3 3 3 3 3 3 3 3 3 3 3 3 3 3 3 3 3 3 3 3 3 3 3 3 3 3 3 3 3 3 3 3 3 3 3 3 3 3 3 3 3 3 3 3 3 3 3 3 3 3 3 3 3 3 3 3 3 3 3 3 3 3 3 3 3 3 3 3 3 3 3 3 3 3 </DataArray>
</Cells>
<PointData  Scalars="f_13"> 
<DataArray  type="Float64"  Name="f_13"  format="ascii">9.6283901862039511e+02  9.6604016492087430e+02  9.6894847537596240e+02  9.7163525278342377e+02  9.7415731591984638e+02  9.7655992220161102e+02  9.7887914394580866e+02  9.8114380263618773e+02  9.8337704500233758e+02  9.8559762826944200e+02  9.8782096882733867e+02  9.9005999813185758e+02  9.9232586134039593e+02  9.9462848755472464e+02  9.9697705524323567e+02  9.9938037216167390e+02  1.0018471856648408e+03  1.0043864365284606e+03  1.0070074671448874e+03  1.0097201931128226e+03  1.0125352457271948e+03  1.0154640916263446e+03  1.0185191348191591e+03  1.0217138054550876e+03  1.0250626389836639e+03  1.0285813487522653e+03  1.0322868945913531e+03  1.0361975495191900e+03  1.0403329663498337e+03  1.0447142456982501e+03  1.0493640066356916e+03  1.0543064610495489e+03  1.0595674925984169e+03  1.0651747410197474e+03  1.0711576924396807e+03  1.0775477762485120e+03  1.0843784690374705e+03  1.0916854060401254e+03  1.0995065004823432e+03  1.1078820712161191e+03  1.1168549789929286e+03  1.1264707717198796e+03  1.1367778390354706e+03  1.1478275765399508e+03  1.1596745600170777e+03  1.1723767299885415e+03  1.1859955869486844e+03  1.2005963976346923e+03  1.2162484126956206e+03  1.2330250961319264e+03  1.2510043668852923e+03  1.2702688529661505e+03  1.2909061585133338e+03  1.3130091441867023e+03  1.3366762212995898e+03  1.3620116601038640e+03  1.3891259126469140e+03  1.4181359506278775e+03  1.4491656186911798e+03  1.4823460036106740e+03  1.5178158198396029e+03  1.5557218119331367e+03  1.5962191743950327e+03  1.6394719895626652e+03  1.6856536842309906e+03  1.7349475058330752e+03  1.7875470191513325e+03  1.8436566247402363e+03  1.9034921005109500e+03  1.9672811682767006e+03  2.0352640875037559e+03  2.1076942790792555e+03  2.1848389826213097e+03  2.2669799517513907e+03  2.3544141928634740e+03  2.4474547543056360e+03  2.5464315745942863e+03  2.6516924003765389e+03  2.7636037874237131e+03  2.8825522010764203e+03  3.0089452363874525e+03  3.1432129828659108e+03  3.2858095643890852e+03  3.4372148917304262e+03  3.5979366735139179e+03  3.7685127415695943e+03  3.9495137590309109e+03  4.1415463945790261e+03  4.3452570646220975e+03  4.5613363676774998e+03  4.7905243627796444e+03  5.0336168775987780e+03  5.2914730736829497e+03  5.5650245477911558e+03  5.8552863121505670e+03  6.1633700757694096e+03  6.4905003475955991e+03  6.8380340052422289e+03  7.2074841263156113e+03  7.6005490706262062e+03  8.0191480399644770e+03  </DataArray> 
</PointData> 
</Piece>
</UnstructuredGrid>
</VTKFile>