<?xml version="1.0"?>
<VTKFile type="UnstructuredGrid"  version="0.1"  >
<UnstructuredGrid>
<Piece  NumberOfPoints="101" NumberOfCells="100">
<Points>
<DataArray  type="Float64"  NumberOfComponents="3"  format="ascii">0 0 0  0.01 0 0  0.02 0 0  0.03 0 0  0.04 0 0  0.05 0 0  0.06 0 0  0.07000000000000001 0 0  0.08 0 0  0.09 0 0  0.1 0 0  0.11 0 0  0.12 0 0  0.13 0 0  0.14 0 0  0.15 0 0  0.16 0 0  0.17 0 0  0.18 0 0  0.19 0 0  0.2 0 0  0.21 0 0  0.22 0 0  0.23 0 0  0.24 0 0  0.25 0 0  0.26 0 0  0.27 0 0  0.28 0 0  0.29 0 0  0.3 0 0  0.31 0 0  0.32 0 0  0.33 0 0  0.34 0 0  0.35 0 0  0.36 0 0  0.37 0 0  0.38 0 0  0.39 0 0  0.4 0 0  0.41 0 0  0.42 0 0  0.43 0 0  0.44 0 0  0.45 0 0  0.46 0 0  0.47 0 0  0.48 0 0  0.49 0 0  0.5 0 0  0.51 0 0  0.52 0 0  0.53 0 0  0.54 0 0  0.55 0 0  0.5600000000000001 0 0  0.57 0 0  0.58 0 0  0.59 0 0  0.6 0 0  0.61 0 0  0.62 0 0  0.63 0 0  0.64 0 0  0.65 0 0  0.66 0 0  0.67 0 0  0.68 0 0  0.6899999999999999 0 0  0.7 0 0  0.71 0 0  0.72 0 0  0.73 0 0  0.74 0 0  0.75 0 0  0.76 0 0  0.77 0 0  0.78 0 0  0.79 0 0  0.8 0 0  0.8100000000000001 0 0  0.82 0 0  0.83 0 0  0.84 0 0  0.85 0 0  0.86 0 0  0.87 0 0  0.88 0 0  0.89 0 0  0.9 0 0  0.91 0 0  0.92 0 0  0.93 0 0  0.9399999999999999 0 0  0.95 0 0  0.96 0 0  0.97 0 0  0.98 0 0  0.99 0 0  1 0 0  </DataArray>
</Points>
<Cells>
<DataArray  type="UInt32"  Name="connectivity"  format="ascii">0 1  1 2  2 3  3 4  4 5  5 6  6 7  7 8  8 9  9 10  10 11  11 12  12 13  13 14  14 15  15 16  16 17  17 18  18 19  19 20  20 21  21 22  22 23  23 24  24 25  25 26  26 27  27 28  28 29  29 30  30 31  31 32  32 33  33 34  34 35  35 36  36 37  37 38  38 39  39 40  40 41  41 42  42 43  43 44  44 45  45 46  46 47  47 48  48 49  49 50  50 51  51 52  52 53  53 54  54 55  55 56  56 57  57 58  58 59  59 60  60 61  61 62  62 63  63 64  64 65  65 66  66 67  67 68  68 69  69 70  70 71  71 72  72 73  73 74  74 75  75 76  76 77  77 78  78 79  79 80  80 81  81 82  82 83  83 84  84 85  85 86  86 87  87 88  88 89  89 90  90 91  91 92  92 93  93 94  94 95  95 96  96 97  97 98  98 99  99 100  </DataArray>
<DataArray  type="UInt32"  Name="offsets"  format="ascii">2 4 6 8 10 12 14 16 18 20 22 24 26 28 30 32 34 36 38 40 42 44 46 48 50 52 54 56 58 60 62 64 66 68 70 72 74 76 78 80 82 84 86 88 90 92 94 96 98 100 102 104 106 108 110 112 114 116 118 120 122 124 126 128 130 132 134 136 138 140 142 144 146 148 150 152 154 156 158 160 162 164 166 168 170 172 174 176 178 180 182 184 186 188 190 192 194 196 198 200 </DataArray>
<DataArray  type="UInt8"  Name="types"  format="ascii">3 3 3 3 3 3 3 3 3 3 3 3 3 3 3 3 3 3 3 3 3 3 3 3 3 3 3 3 3 3 3 3 3 3 3 3 3 3 3 3 3 3 3 3 3 3 3 3 3 3 3 3 3 3 3 3 3 3 3 3 3 3 3 3 3 3 3 3 3 3 3 3 3 3 3 3 3 3 3 3 3 3 3 3 3 3 3 3 3 3 3 3 3 3 3 3 3 3 3 3 </DataArray>
</Cells>
<PointData  Scalars="f_13"> 
<DataArray  type="Float64"  Name="f_13"  format="ascii">1.4433313702391149e+03  1.4565478066067585e+03  1.4728258714282849e+03  1.4921178281733064e+03  1.5144047322786353e+03  1.5396927832261001e+03  1.5680104843735685e+03  1.5994064868719147e+03  1.6339480072067281e+03  1.6717197220447974e+03  1.7128230581053840e+03  1.7573758080499581e+03  1.8055120155022892e+03  1.8573820830832481e+03  1.9131530667188460e+03  1.9730091274943989e+03  2.0371521190768729e+03  2.1058022943368028e+03  2.1791991194089678e+03  2.2576021871764324e+03  2.3412922251780010e+03  2.4305721953456446e+03  2.5257684848834820e+03  2.6272321890966105e+03  2.7353404881455658e+03  2.8504981206064649e+03  2.9731389574120631e+03  3.1037276802787364e+03  3.2427615691233209e+03  3.3907724032687479e+03  3.5483284814489202e+03  3.7160367657662109e+03  3.8945451548400829e+03  4.0845448914193835e+03  4.2867731097180213e+03  4.5020155276754922e+03  4.7311092892398010e+03  4.9749459616187796e+03  5.2344746922435743e+03  5.5107055299308331e+03  5.8047129144130213e+03  6.1176393380236250e+03  6.4506991828695936e+03  6.8051827362907661e+03  7.1824603867884507e+03  7.5839870018958563e+03  8.0113064886549273e+03  8.4660565364506110e+03  8.9499735409283494e+03  9.4648977065778599e+03  1.0012778324301204e+04  1.0595679218891473e+04  1.1215784359828032e+04  1.1875403627143716e+04  1.2576978722340384e+04  1.3323089212424991e+04  1.4116458693115665e+04  1.4959961055136026e+04  1.5856626835289851e+04  1.6809649631704659e+04  1.7822392560274737e+04  1.8898394726947034e+04  2.0041377688108645e+04  2.1255251868985775e+04  2.2544122907686953e+04  2.3912297890353082e+04  2.5364291440844685e+04  2.6904831626523512e+04  2.8538865639975324e+04  3.0271565214947845e+04  3.2108331733274157e+04  3.4054800977983869e+04  3.6116847485950151e+04  3.8300588450928233e+04  4.0612387124191278e+04  4.3058855654410123e+04  4.5646857299899464e+04  4.8383507933415138e+04  5.1276176740375267e+04  5.4332485983085280e+04  5.7560309662853520e+04  6.0967770854357848e+04  6.4563237406594591e+04  6.8355315595036722e+04  7.2352841161285847e+04  7.6564866978461694e+04  8.1000646319344974e+04  8.5669610363674044e+04  9.0581338141804968e+04  9.5745516551863606e+04  1.0117188738111705e+05  1.0687017738130281e+05  1.1285000636166650e+05  1.1912076694115184e+05  1.2569146801237598e+05  1.3257053208873645e+05  1.3976553451493182e+05  1.4728287001793136e+05  1.5512732928083726e+05  1.6330156519123830e+05  1.7180542525181020e+05  </DataArray> 
</PointData> 
</Piece>
</UnstructuredGrid>
</VTKFile>