<?xml version="1.0"?>
<VTKFile type="UnstructuredGrid"  version="0.1"  >
<UnstructuredGrid>
<Piece  NumberOfPoints="101" NumberOfCells="100">
<Points>
<DataArray  type="Float64"  NumberOfComponents="3"  format="ascii">0 0 0  0.01 0 0  0.02 0 0  0.03 0 0  0.04 0 0  0.05 0 0  0.06 0 0  0.07000000000000001 0 0  0.08 0 0  0.09 0 0  0.1 0 0  0.11 0 0  0.12 0 0  0.13 0 0  0.14 0 0  0.15 0 0  0.16 0 0  0.17 0 0  0.18 0 0  0.19 0 0  0.2 0 0  0.21 0 0  0.22 0 0  0.23 0 0  0.24 0 0  0.25 0 0  0.26 0 0  0.27 0 0  0.28 0 0  0.29 0 0  0.3 0 0  0.31 0 0  0.32 0 0  0.33 0 0  0.34 0 0  0.35 0 0  0.36 0 0  0.37 0 0  0.38 0 0  0.39 0 0  0.4 0 0  0.41 0 0  0.42 0 0  0.43 0 0  0.44 0 0  0.45 0 0  0.46 0 0  0.47 0 0  0.48 0 0  0.49 0 0  0.5 0 0  0.51 0 0  0.52 0 0  0.53 0 0  0.54 0 0  0.55 0 0  0.5600000000000001 0 0  0.57 0 0  0.58 0 0  0.59 0 0  0.6 0 0  0.61 0 0  0.62 0 0  0.63 0 0  0.64 0 0  0.65 0 0  0.66 0 0  0.67 0 0  0.68 0 0  0.6899999999999999 0 0  0.7 0 0  0.71 0 0  0.72 0 0  0.73 0 0  0.74 0 0  0.75 0 0  0.76 0 0  0.77 0 0  0.78 0 0  0.79 0 0  0.8 0 0  0.8100000000000001 0 0  0.82 0 0  0.83 0 0  0.84 0 0  0.85 0 0  0.86 0 0  0.87 0 0  0.88 0 0  0.89 0 0  0.9 0 0  0.91 0 0  0.92 0 0  0.93 0 0  0.9399999999999999 0 0  0.95 0 0  0.96 0 0  0.97 0 0  0.98 0 0  0.99 0 0  1 0 0  </DataArray>
</Points>
<Cells>
<DataArray  type="UInt32"  Name="connectivity"  format="ascii">0 1  1 2  2 3  3 4  4 5  5 6  6 7  7 8  8 9  9 10  10 11  11 12  12 13  13 14  14 15  15 16  16 17  17 18  18 19  19 20  20 21  21 22  22 23  23 24  24 25  25 26  26 27  27 28  28 29  29 30  30 31  31 32  32 33  33 34  34 35  35 36  36 37  37 38  38 39  39 40  40 41  41 42  42 43  43 44  44 45  45 46  46 47  47 48  48 49  49 50  50 51  51 52  52 53  53 54  54 55  55 56  56 57  57 58  58 59  59 60  60 61  61 62  62 63  63 64  64 65  65 66  66 67  67 68  68 69  69 70  70 71  71 72  72 73  73 74  74 75  75 76  76 77  77 78  78 79  79 80  80 81  81 82  82 83  83 84  84 85  85 86  86 87  87 88  88 89  89 90  90 91  91 92  92 93  93 94  94 95  95 96  96 97  97 98  98 99  99 100  </DataArray>
<DataArray  type="UInt32"  Name="offsets"  format="ascii">2 4 6 8 10 12 14 16 18 20 22 24 26 28 30 32 34 36 38 40 42 44 46 48 50 52 54 56 58 60 62 64 66 68 70 72 74 76 78 80 82 84 86 88 90 92 94 96 98 100 102 104 106 108 110 112 114 116 118 120 122 124 126 128 130 132 134 136 138 140 142 144 146 148 150 152 154 156 158 160 162 164 166 168 170 172 174 176 178 180 182 184 186 188 190 192 194 196 198 200 </DataArray>
<DataArray  type="UInt8"  Name="types"  format="ascii">3 3 3 3 3 3 3 3 3 3 3 3 3 3 3 3 3 3 3 3 3 3 3 3 3 3 3 3 3 3 3 3 3 3 3 3 3 3 3 3 3 3 3 3 3 3 3 3 3 3 3 3 3 3 3 3 3 3 3 3 3 3 3 3 3 3 3 3 3 3 3 3 3 3 3 3 3 3 3 3 3 3 3 3 3 3 3 3 3 3 3 3 3 3 3 3 3 3 3 3 </DataArray>
</Cells>
<PointData  Scalars="f_13"> 
<DataArray  type="Float64"  Name="f_13"  format="ascii">4.7903348296191507e+03  4.8087621391923512e+03  4.8409080425600132e+03  4.8869554988053560e+03  4.9471107318034165e+03  5.0216065523382185e+03  5.1107050802886306e+03  5.2146999841531360e+03  5.3339183450334485e+03  5.4687222374073535e+03  5.6195101028414765e+03  5.7867179771281335e+03  5.9708206171913034e+03  6.1723325619392190e+03  6.3918091511375997e+03  6.6298475182271995e+03  6.8870875665946169e+03  7.1642129338654568e+03  7.4619519450578700e+03  7.7810785526632035e+03  8.1224132596884019e+03  8.4868240202143443e+03  8.8752271109408648e+03  9.2885879663792894e+03  9.7279219697208155e+03  1.0194295190881305e+04  1.0688825062747077e+04  1.1212680986184889e+04  1.1767084853908034e+04  1.2353311482794601e+04  1.2972688943726525e+04  1.3626598777457513e+04  1.4316476084427193e+04  1.5043809475823780e+04  1.5810140872566222e+04  1.6617065138239195e+04  1.7466229531381356e+04  1.8359332961910819e+04  1.9298125035885409e+04  2.0284404872251522e+04  2.1320019674750056e+04  2.2406863041735269e+04  2.3546872996339884e+04  2.4742029719203674e+04  2.5994352965893409e+04  2.7305899151197704e+04  2.8678758082704157e+04  3.0115049326480301e+04  3.1616918188309428e+04  3.3186531294803426e+04  3.4826071759855928e+04  3.6537733923338579e+04  3.8323717650713341e+04  4.0186222184364466e+04  4.2127439539979154e+04  4.4149547444256263e+04  4.6254701813630847e+04  4.8445028777596919e+04  5.0722616254619141e+04  5.3089505093566411e+04  5.5547679799094221e+04  5.8099058865451130e+04  6.0745484749785894e+04  6.3488713523164450e+04  6.6330404245133119e+04  6.9272108115728130e+04  7.2315257467246847e+04  7.5461154666750575e+04  7.8710961009015795e+04  8.2065685688307189e+04  8.5526174945691819e+04  8.9093101496386851e+04  9.2766954348538580e+04  9.6548029130534705e+04  1.0043641904810727e+05  1.0443200659473205e+05  1.0853445613883891e+05  1.1274320750883897e+05  1.1705747069178455e+05  1.2147622175361535e+05  1.2599820007869121e+05  1.3062190701432647e+05  1.3534560599350618e+05  1.4016732419775653e+05  1.4508485581502866e+05  1.5009576694833449e+05  1.5519740224500833e+05  1.6038689335075687e+05  1.6566116935586231e+05  1.7101696950380027e+05  1.7645085858797852e+05  1.8195924568499392e+05  1.8753840717869814e+05  1.9318451543444931e+05  1.9889367500106222e+05  2.0466196885733100e+05  2.1048551797747466e+05  2.1636055834254134e+05  2.2228354041731564e+05  2.2825125693826063e+05  2.3426100543353832e+05  </DataArray> 
</PointData> 
</Piece>
</UnstructuredGrid>
</VTKFile>