<?xml version="1.0"?>
<VTKFile type="UnstructuredGrid"  version="0.1"  >
<UnstructuredGrid>
<Piece  NumberOfPoints="101" NumberOfCells="100">
<Points>
<DataArray  type="Float64"  NumberOfComponents="3"  format="ascii">0 0 0  0.01 0 0  0.02 0 0  0.03 0 0  0.04 0 0  0.05 0 0  0.06 0 0  0.07000000000000001 0 0  0.08 0 0  0.09 0 0  0.1 0 0  0.11 0 0  0.12 0 0  0.13 0 0  0.14 0 0  0.15 0 0  0.16 0 0  0.17 0 0  0.18 0 0  0.19 0 0  0.2 0 0  0.21 0 0  0.22 0 0  0.23 0 0  0.24 0 0  0.25 0 0  0.26 0 0  0.27 0 0  0.28 0 0  0.29 0 0  0.3 0 0  0.31 0 0  0.32 0 0  0.33 0 0  0.34 0 0  0.35 0 0  0.36 0 0  0.37 0 0  0.38 0 0  0.39 0 0  0.4 0 0  0.41 0 0  0.42 0 0  0.43 0 0  0.44 0 0  0.45 0 0  0.46 0 0  0.47 0 0  0.48 0 0  0.49 0 0  0.5 0 0  0.51 0 0  0.52 0 0  0.53 0 0  0.54 0 0  0.55 0 0  0.5600000000000001 0 0  0.57 0 0  0.58 0 0  0.59 0 0  0.6 0 0  0.61 0 0  0.62 0 0  0.63 0 0  0.64 0 0  0.65 0 0  0.66 0 0  0.67 0 0  0.68 0 0  0.6899999999999999 0 0  0.7 0 0  0.71 0 0  0.72 0 0  0.73 0 0  0.74 0 0  0.75 0 0  0.76 0 0  0.77 0 0  0.78 0 0  0.79 0 0  0.8 0 0  0.8100000000000001 0 0  0.82 0 0  0.83 0 0  0.84 0 0  0.85 0 0  0.86 0 0  0.87 0 0  0.88 0 0  0.89 0 0  0.9 0 0  0.91 0 0  0.92 0 0  0.93 0 0  0.9399999999999999 0 0  0.95 0 0  0.96 0 0  0.97 0 0  0.98 0 0  0.99 0 0  1 0 0  </DataArray>
</Points>
<Cells>
<DataArray  type="UInt32"  Name="connectivity"  format="ascii">0 1  1 2  2 3  3 4  4 5  5 6  6 7  7 8  8 9  9 10  10 11  11 12  12 13  13 14  14 15  15 16  16 17  17 18  18 19  19 20  20 21  21 22  22 23  23 24  24 25  25 26  26 27  27 28  28 29  29 30  30 31  31 32  32 33  33 34  34 35  35 36  36 37  37 38  38 39  39 40  40 41  41 42  42 43  43 44  44 45  45 46  46 47  47 48  48 49  49 50  50 51  51 52  52 53  53 54  54 55  55 56  56 57  57 58  58 59  59 60  60 61  61 62  62 63  63 64  64 65  65 66  66 67  67 68  68 69  69 70  70 71  71 72  72 73  73 74  74 75  75 76  76 77  77 78  78 79  79 80  80 81  81 82  82 83  83 84  84 85  85 86  86 87  87 88  88 89  89 90  90 91  91 92  92 93  93 94  94 95  95 96  96 97  97 98  98 99  99 100  </DataArray>
<DataArray  type="UInt32"  Name="offsets"  format="ascii">2 4 6 8 10 12 14 16 18 20 22 24 26 28 30 32 34 36 38 40 42 44 46 48 50 52 54 56 58 60 62 64 66 68 70 72 74 76 78 80 82 84 86 88 90 92 94 96 98 100 102 104 106 108 110 112 114 116 118 120 122 124 126 128 130 132 134 136 138 140 142 144 146 148 150 152 154 156 158 160 162 164 166 168 170 172 174 176 178 180 182 184 186 188 190 192 194 196 198 200 </DataArray>
<DataArray  type="UInt8"  Name="types"  format="ascii">3 3 3 3 3 3 3 3 3 3 3 3 3 3 3 3 3 3 3 3 3 3 3 3 3 3 3 3 3 3 3 3 3 3 3 3 3 3 3 3 3 3 3 3 3 3 3 3 3 3 3 3 3 3 3 3 3 3 3 3 3 3 3 3 3 3 3 3 3 3 3 3 3 3 3 3 3 3 3 3 3 3 3 3 3 3 3 3 3 3 3 3 3 3 3 3 3 3 3 3 </DataArray>
</Cells>
<PointData  Scalars="f_13"> 
<DataArray  type="Float64"  Name="f_13"  format="ascii">9.5047620652333887e+02  9.5531841787500889e+02  9.5981786034503034e+02  9.6403225884892026e+02  9.6801193198553415e+02  9.7180092670319334e+02  9.7543800331139698e+02  9.7895749164618246e+02  9.8239003527778948e+02  9.8576323814724344e+02  9.8910222627663200e+02  9.9243013584573873e+02  9.9576853776926123e+02  9.9913780785022743e+02  1.0025574505893454e+03  1.0060463837887850e+03  1.0096231902068803e+03  1.0133063417056212e+03  1.0171144005927341e+03  1.0210662021988837e+03  1.0251810221489275e+03  1.0294787312820699e+03  1.0339799407447051e+03  1.0387061394155849e+03  1.0436798255186775e+03  1.0489246340273260e+03  1.0544654612567988e+03  1.0603285878741672e+03  1.0665418014184072e+03  1.0731345193141242e+03  1.0801379132745487e+03  1.0875850359194076e+03  1.0955109503775327e+03  1.1039528635999463e+03  1.1129502640744713e+03  1.1225450646059671e+03  1.1327817508058729e+03  1.1437075359198607e+03  1.1553725226125271e+03  1.1678298723226933e+03  1.1811359828019458e+03  1.1953506744524086e+03  1.2105373860875627e+03  1.2267633807523864e+03  1.2440999622565255e+03  1.2626227030969869e+03  1.2824116844755283e+03  1.3035517491509959e+03  1.3261327679090855e+03  1.3502499204820647e+03  1.3760039918097959e+03  1.4035016846018750e+03  1.4328559492399493e+03  1.4641863321504777e+03  1.4976193438827179e+03  1.5332888482460091e+03  1.5713364739961812e+03  1.6119120507149262e+03  1.6551740707003453e+03  1.7012901788838153e+03  1.7504376930104916e+03  1.8028041565709220e+03  1.8585879272527909e+03  1.9179988039984141e+03  1.9812586961096370e+03  2.0486023382423032e+03  2.1202780555834361e+03  2.1965485840128249e+03  2.2776919506253803e+03  2.3640024206417856e+03  2.4557915174752306e+03  2.5533891235667516e+03  2.6571446705699545e+03  2.7674284285806662e+03  2.8846329053969330e+03  3.0091743682944484e+03  3.1414945025541924e+03  3.2820622230341655e+03  3.4313756574972608e+03  3.5899643232663034e+03  3.7583915221626280e+03  3.9372569826989152e+03  4.1271997832597253e+03  4.3289015956513849e+03  4.5430902950918990e+03  4.7705439906152997e+03  5.0120955391743501e+03  5.2686376176481772e+03  5.5411284397180234e+03  5.8305982193971386e+03  6.1381565001320896e+03  6.4650004880867300e+03  6.8124245507520345e+03  7.1818310677142244e+03  7.5747428496702478e+03  7.9928173751925970e+03  8.4378631332357563e+03  8.9118584044567797e+03  9.4169728686158651e+03  9.9555924928331988e+03  1.0530348243227616e+04  </DataArray> 
</PointData> 
</Piece>
</UnstructuredGrid>
</VTKFile>