<?xml version="1.0"?>
<VTKFile type="UnstructuredGrid"  version="0.1"  >
<UnstructuredGrid>
<Piece  NumberOfPoints="101" NumberOfCells="100">
<Points>
<DataArray  type="Float64"  NumberOfComponents="3"  format="ascii">0 0 0  0.01 0 0  0.02 0 0  0.03 0 0  0.04 0 0  0.05 0 0  0.06 0 0  0.07000000000000001 0 0  0.08 0 0  0.09 0 0  0.1 0 0  0.11 0 0  0.12 0 0  0.13 0 0  0.14 0 0  0.15 0 0  0.16 0 0  0.17 0 0  0.18 0 0  0.19 0 0  0.2 0 0  0.21 0 0  0.22 0 0  0.23 0 0  0.24 0 0  0.25 0 0  0.26 0 0  0.27 0 0  0.28 0 0  0.29 0 0  0.3 0 0  0.31 0 0  0.32 0 0  0.33 0 0  0.34 0 0  0.35 0 0  0.36 0 0  0.37 0 0  0.38 0 0  0.39 0 0  0.4 0 0  0.41 0 0  0.42 0 0  0.43 0 0  0.44 0 0  0.45 0 0  0.46 0 0  0.47 0 0  0.48 0 0  0.49 0 0  0.5 0 0  0.51 0 0  0.52 0 0  0.53 0 0  0.54 0 0  0.55 0 0  0.5600000000000001 0 0  0.57 0 0  0.58 0 0  0.59 0 0  0.6 0 0  0.61 0 0  0.62 0 0  0.63 0 0  0.64 0 0  0.65 0 0  0.66 0 0  0.67 0 0  0.68 0 0  0.6899999999999999 0 0  0.7 0 0  0.71 0 0  0.72 0 0  0.73 0 0  0.74 0 0  0.75 0 0  0.76 0 0  0.77 0 0  0.78 0 0  0.79 0 0  0.8 0 0  0.8100000000000001 0 0  0.82 0 0  0.83 0 0  0.84 0 0  0.85 0 0  0.86 0 0  0.87 0 0  0.88 0 0  0.89 0 0  0.9 0 0  0.91 0 0  0.92 0 0  0.93 0 0  0.9399999999999999 0 0  0.95 0 0  0.96 0 0  0.97 0 0  0.98 0 0  0.99 0 0  1 0 0  </DataArray>
</Points>
<Cells>
<DataArray  type="UInt32"  Name="connectivity"  format="ascii">0 1  1 2  2 3  3 4  4 5  5 6  6 7  7 8  8 9  9 10  10 11  11 12  12 13  13 14  14 15  15 16  16 17  17 18  18 19  19 20  20 21  21 22  22 23  23 24  24 25  25 26  26 27  27 28  28 29  29 30  30 31  31 32  32 33  33 34  34 35  35 36  36 37  37 38  38 39  39 40  40 41  41 42  42 43  43 44  44 45  45 46  46 47  47 48  48 49  49 50  50 51  51 52  52 53  53 54  54 55  55 56  56 57  57 58  58 59  59 60  60 61  61 62  62 63  63 64  64 65  65 66  66 67  67 68  68 69  69 70  70 71  71 72  72 73  73 74  74 75  75 76  76 77  77 78  78 79  79 80  80 81  81 82  82 83  83 84  84 85  85 86  86 87  87 88  88 89  89 90  90 91  91 92  92 93  93 94  94 95  95 96  96 97  97 98  98 99  99 100  </DataArray>
<DataArray  type="UInt32"  Name="offsets"  format="ascii">2 4 6 8 10 12 14 16 18 20 22 24 26 28 30 32 34 36 38 40 42 44 46 48 50 52 54 56 58 60 62 64 66 68 70 72 74 76 78 80 82 84 86 88 90 92 94 96 98 100 102 104 106 108 110 112 114 116 118 120 122 124 126 128 130 132 134 136 138 140 142 144 146 148 150 152 154 156 158 160 162 164 166 168 170 172 174 176 178 180 182 184 186 188 190 192 194 196 198 200 </DataArray>
<DataArray  type="UInt8"  Name="types"  format="ascii">3 3 3 3 3 3 3 3 3 3 3 3 3 3 3 3 3 3 3 3 3 3 3 3 3 3 3 3 3 3 3 3 3 3 3 3 3 3 3 3 3 3 3 3 3 3 3 3 3 3 3 3 3 3 3 3 3 3 3 3 3 3 3 3 3 3 3 3 3 3 3 3 3 3 3 3 3 3 3 3 3 3 3 3 3 3 3 3 3 3 3 3 3 3 3 3 3 3 3 3 </DataArray>
</Cells>
<PointData  Scalars="f_13"> 
<DataArray  type="Float64"  Name="f_13"  format="ascii">1.8978387565759758e+03  1.9125858534676092e+03  1.9323142320274553e+03  1.9570129823199743e+03  1.9866958839216400e+03  2.0214014738690473e+03  2.0611930330704017e+03  2.1061585539421658e+03  2.1564107333118204e+03  2.2120870213946505e+03  2.2733497482369448e+03  2.3403863422822196e+03  2.4134096508829243e+03  2.4926583691118899e+03  2.5783975807527263e+03  2.6709194136035180e+03  2.7705438100247106e+03  2.8776194128618999e+03  2.9925245663742612e+03  3.1156684315210578e+03  3.2474922148414676e+03  3.3884705101592890e+03  3.5391127524163780e+03  3.6999647830571516e+03  3.8716105265274869e+03  4.0546737775961014e+03  4.2498200993402525e+03  4.4577588317488826e+03  4.6792452109761698e+03  4.9150825993201015e+03  5.1661248259991171e+03  5.4332786387511305e+03  5.7175062661809316e+03  6.0198280906317996e+03  6.3413254311541423e+03  6.6831434358869901e+03  7.0464940828567997e+03  7.4326592878316933e+03  7.8429941174479609e+03  8.2789301053487525e+03  8.7419786685424642e+03  9.2337346205996437e+03  9.7558797776619467e+03  1.0310186652533535e+04  1.0898522231363606e+04  1.1522851826605902e+04  1.2185242999055494e+04  1.2887869540810776e+04  1.3633015509985638e+04  1.4423079306896891e+04  1.5260577780268186e+04  1.6148150350713579e+04  1.7088563137379617e+04  1.8084713072118480e+04  1.9139631983916548e+04  2.0256490634488495e+04  2.1438602683936464e+04  2.2689428563129990e+04  2.4012579226940536e+04  2.5411819759610280e+04  2.6891072800284623e+04  2.8454421753013088e+04  3.0106113741235731e+04  3.1850562261814317e+04  3.3692349487918233e+04  3.5636228163393229e+04  3.7687123023466927e+04  3.9850131667599504e+04  4.2130524799770188e+04  4.4533745739282793e+04  4.7065409091039226e+04  4.9731298447919224e+04  5.2537362979161495e+04  5.5489712737205788e+04  5.8594612491084830e+04  6.1858473866929242e+04  6.5287845545297692e+04  6.8889401230771400e+04  7.2669925071566337e+04  7.6636294165973988e+04  8.0795457748598696e+04  8.5154412603226898e+04  8.9720174201689952e+04  9.4499743020634167e+04  9.9500065442585081e+04  1.0472798860665187e+05  1.1019020854103396e+05  1.1589321088858086e+05  1.2184320353371077e+05  1.2804604046135979e+05  1.3450713623578884e+05  1.4123137059133069e+05  1.4822298279466495e+05  1.5548545569045466e+05  1.6302138970822576e+05  1.7083236762819698e+05  1.7891881163330135e+05  1.8727983519328263e+05  1.9591309374860878e+05  2.0481464015251392e+05  2.1397879363022590e+05  </DataArray> 
</PointData> 
</Piece>
</UnstructuredGrid>
</VTKFile>