<?xml version="1.0"?>
<VTKFile type="UnstructuredGrid"  version="0.1"  >
<UnstructuredGrid>
<Piece  NumberOfPoints="101" NumberOfCells="100">
<Points>
<DataArray  type="Float64"  NumberOfComponents="3"  format="ascii">0 0 0  0.01 0 0  0.02 0 0  0.03 0 0  0.04 0 0  0.05 0 0  0.06 0 0  0.07000000000000001 0 0  0.08 0 0  0.09 0 0  0.1 0 0  0.11 0 0  0.12 0 0  0.13 0 0  0.14 0 0  0.15 0 0  0.16 0 0  0.17 0 0  0.18 0 0  0.19 0 0  0.2 0 0  0.21 0 0  0.22 0 0  0.23 0 0  0.24 0 0  0.25 0 0  0.26 0 0  0.27 0 0  0.28 0 0  0.29 0 0  0.3 0 0  0.31 0 0  0.32 0 0  0.33 0 0  0.34 0 0  0.35 0 0  0.36 0 0  0.37 0 0  0.38 0 0  0.39 0 0  0.4 0 0  0.41 0 0  0.42 0 0  0.43 0 0  0.44 0 0  0.45 0 0  0.46 0 0  0.47 0 0  0.48 0 0  0.49 0 0  0.5 0 0  0.51 0 0  0.52 0 0  0.53 0 0  0.54 0 0  0.55 0 0  0.5600000000000001 0 0  0.57 0 0  0.58 0 0  0.59 0 0  0.6 0 0  0.61 0 0  0.62 0 0  0.63 0 0  0.64 0 0  0.65 0 0  0.66 0 0  0.67 0 0  0.68 0 0  0.6899999999999999 0 0  0.7 0 0  0.71 0 0  0.72 0 0  0.73 0 0  0.74 0 0  0.75 0 0  0.76 0 0  0.77 0 0  0.78 0 0  0.79 0 0  0.8 0 0  0.8100000000000001 0 0  0.82 0 0  0.83 0 0  0.84 0 0  0.85 0 0  0.86 0 0  0.87 0 0  0.88 0 0  0.89 0 0  0.9 0 0  0.91 0 0  0.92 0 0  0.93 0 0  0.9399999999999999 0 0  0.95 0 0  0.96 0 0  0.97 0 0  0.98 0 0  0.99 0 0  1 0 0  </DataArray>
</Points>
<Cells>
<DataArray  type="UInt32"  Name="connectivity"  format="ascii">0 1  1 2  2 3  3 4  4 5  5 6  6 7  7 8  8 9  9 10  10 11  11 12  12 13  13 14  14 15  15 16  16 17  17 18  18 19  19 20  20 21  21 22  22 23  23 24  24 25  25 26  26 27  27 28  28 29  29 30  30 31  31 32  32 33  33 34  34 35  35 36  36 37  37 38  38 39  39 40  40 41  41 42  42 43  43 44  44 45  45 46  46 47  47 48  48 49  49 50  50 51  51 52  52 53  53 54  54 55  55 56  56 57  57 58  58 59  59 60  60 61  61 62  62 63  63 64  64 65  65 66  66 67  67 68  68 69  69 70  70 71  71 72  72 73  73 74  74 75  75 76  76 77  77 78  78 79  79 80  80 81  81 82  82 83  83 84  84 85  85 86  86 87  87 88  88 89  89 90  90 91  91 92  92 93  93 94  94 95  95 96  96 97  97 98  98 99  99 100  </DataArray>
<DataArray  type="UInt32"  Name="offsets"  format="ascii">2 4 6 8 10 12 14 16 18 20 22 24 26 28 30 32 34 36 38 40 42 44 46 48 50 52 54 56 58 60 62 64 66 68 70 72 74 76 78 80 82 84 86 88 90 92 94 96 98 100 102 104 106 108 110 112 114 116 118 120 122 124 126 128 130 132 134 136 138 140 142 144 146 148 150 152 154 156 158 160 162 164 166 168 170 172 174 176 178 180 182 184 186 188 190 192 194 196 198 200 </DataArray>
<DataArray  type="UInt8"  Name="types"  format="ascii">3 3 3 3 3 3 3 3 3 3 3 3 3 3 3 3 3 3 3 3 3 3 3 3 3 3 3 3 3 3 3 3 3 3 3 3 3 3 3 3 3 3 3 3 3 3 3 3 3 3 3 3 3 3 3 3 3 3 3 3 3 3 3 3 3 3 3 3 3 3 3 3 3 3 3 3 3 3 3 3 3 3 3 3 3 3 3 3 3 3 3 3 3 3 3 3 3 3 3 3 </DataArray>
</Cells>
<PointData  Scalars="f_13"> 
<DataArray  type="Float64"  Name="f_13"  format="ascii">4.5192860171446255e+03  4.5344548055257910e+03  4.5629549343653543e+03  4.6048889199288660e+03  4.6603969451779858e+03  4.7296577733074419e+03  4.8128890931638807e+03  4.9103476019918080e+03  5.0223290189066429e+03  5.1491681448447544e+03  5.2912390319924934e+03  5.4489552907827074e+03  5.6227705402402680e+03  5.8131789939194368e+03  6.0207161661119871e+03  6.2459596794030376e+03  6.4895301535788021e+03  6.7520921563422544e+03  7.0343551975775335e+03  7.3370747505573590e+03  7.6610532852083907e+03  8.0071413001509100e+03  8.3762383416052726e+03  8.7692939983565557e+03  9.1873088627751004e+03  9.6313354484113097e+03  1.0102479054939105e+04  1.0601898571241822e+04  1.1130807207248223e+04  1.1690473144766169e+04  1.2282220097057287e+04  1.2907427766275528e+04  1.3567532187181117e+04  1.4264025944761226e+04  1.4998458252560084e+04  1.5772434877661844e+04  1.6587617897395347e+04  1.7445725271955645e+04  1.8348530216276908e+04  1.9297860353657503e+04  2.0295596632844830e+04  2.1343671989547431e+04  2.2444069732669392e+04  2.3598821634972064e+04  2.4810005707376931e+04  2.6079743635748546e+04  2.7410197858758249e+04  2.8803568265348946e+04  3.0262088490423714e+04  3.1788021787692745e+04  3.3383656459164886e+04  3.5051300821594472e+04  3.6793277691328512e+04  3.8611918370483581e+04  4.0509556119260145e+04  4.2488519101522674e+04  4.4551122793587492e+04  4.6699661849522039e+04  4.8936401420227012e+04  5.1263567928204146e+04  5.3683339305270267e+04  5.6197834706617745e+04  5.8809103721600135e+04  6.1519115109486651e+04  6.4329745097216306e+04  6.7242765285912072e+04  7.0259830223583675e+04  7.3382464713016525e+04  7.6612050936236206e+04  7.9949815490015710e+04  8.3396816440452472e+04  8.6953930518387468e+04  9.0621840590972104e+04  9.4401023557472115e+04  9.8291738828752670e+04  1.0229401755894524e+05  1.0640765280349369e+05  1.1063219077882179e+05  1.1496692339373523e+05  1.1941088220960356e+05  1.2396283396338014e+05  1.2862127775245497e+05  1.3338444393096294e+05  1.3825029470132838e+05  1.4321652630067547e+05  1.4828057257812718e+05  1.5343960963603310e+05  1.5869056106790001e+05  1.6403010317343645e+05  1.6945466937645921e+05  1.7496045293092931e+05  1.8054340690007788e+05  1.8619924037275443e+05  1.9192340999750278e+05  1.9771110625137808e+05  2.0355723453431754e+05  2.0945639235422437e+05  2.1540284576779557e+05  2.2139051117463483e+05  2.2741295294324405e+05  2.3346341373636387e+05  </DataArray> 
</PointData> 
</Piece>
</UnstructuredGrid>
</VTKFile>