<?xml version="1.0"?>
<VTKFile type="UnstructuredGrid"  version="0.1"  >
<UnstructuredGrid>
<Piece  NumberOfPoints="101" NumberOfCells="100">
<Points>
<DataArray  type="Float64"  NumberOfComponents="3"  format="ascii">0 0 0  0.01 0 0  0.02 0 0  0.03 0 0  0.04 0 0  0.05 0 0  0.06 0 0  0.07000000000000001 0 0  0.08 0 0  0.09 0 0  0.1 0 0  0.11 0 0  0.12 0 0  0.13 0 0  0.14 0 0  0.15 0 0  0.16 0 0  0.17 0 0  0.18 0 0  0.19 0 0  0.2 0 0  0.21 0 0  0.22 0 0  0.23 0 0  0.24 0 0  0.25 0 0  0.26 0 0  0.27 0 0  0.28 0 0  0.29 0 0  0.3 0 0  0.31 0 0  0.32 0 0  0.33 0 0  0.34 0 0  0.35 0 0  0.36 0 0  0.37 0 0  0.38 0 0  0.39 0 0  0.4 0 0  0.41 0 0  0.42 0 0  0.43 0 0  0.44 0 0  0.45 0 0  0.46 0 0  0.47 0 0  0.48 0 0  0.49 0 0  0.5 0 0  0.51 0 0  0.52 0 0  0.53 0 0  0.54 0 0  0.55 0 0  0.5600000000000001 0 0  0.57 0 0  0.58 0 0  0.59 0 0  0.6 0 0  0.61 0 0  0.62 0 0  0.63 0 0  0.64 0 0  0.65 0 0  0.66 0 0  0.67 0 0  0.68 0 0  0.6899999999999999 0 0  0.7 0 0  0.71 0 0  0.72 0 0  0.73 0 0  0.74 0 0  0.75 0 0  0.76 0 0  0.77 0 0  0.78 0 0  0.79 0 0  0.8 0 0  0.8100000000000001 0 0  0.82 0 0  0.83 0 0  0.84 0 0  0.85 0 0  0.86 0 0  0.87 0 0  0.88 0 0  0.89 0 0  0.9 0 0  0.91 0 0  0.92 0 0  0.93 0 0  0.9399999999999999 0 0  0.95 0 0  0.96 0 0  0.97 0 0  0.98 0 0  0.99 0 0  1 0 0  </DataArray>
</Points>
<Cells>
<DataArray  type="UInt32"  Name="connectivity"  format="ascii">0 1  1 2  2 3  3 4  4 5  5 6  6 7  7 8  8 9  9 10  10 11  11 12  12 13  13 14  14 15  15 16  16 17  17 18  18 19  19 20  20 21  21 22  22 23  23 24  24 25  25 26  26 27  27 28  28 29  29 30  30 31  31 32  32 33  33 34  34 35  35 36  36 37  37 38  38 39  39 40  40 41  41 42  42 43  43 44  44 45  45 46  46 47  47 48  48 49  49 50  50 51  51 52  52 53  53 54  54 55  55 56  56 57  57 58  58 59  59 60  60 61  61 62  62 63  63 64  64 65  65 66  66 67  67 68  68 69  69 70  70 71  71 72  72 73  73 74  74 75  75 76  76 77  77 78  78 79  79 80  80 81  81 82  82 83  83 84  84 85  85 86  86 87  87 88  88 89  89 90  90 91  91 92  92 93  93 94  94 95  95 96  96 97  97 98  98 99  99 100  </DataArray>
<DataArray  type="UInt32"  Name="offsets"  format="ascii">2 4 6 8 10 12 14 16 18 20 22 24 26 28 30 32 34 36 38 40 42 44 46 48 50 52 54 56 58 60 62 64 66 68 70 72 74 76 78 80 82 84 86 88 90 92 94 96 98 100 102 104 106 108 110 112 114 116 118 120 122 124 126 128 130 132 134 136 138 140 142 144 146 148 150 152 154 156 158 160 162 164 166 168 170 172 174 176 178 180 182 184 186 188 190 192 194 196 198 200 </DataArray>
<DataArray  type="UInt8"  Name="types"  format="ascii">3 3 3 3 3 3 3 3 3 3 3 3 3 3 3 3 3 3 3 3 3 3 3 3 3 3 3 3 3 3 3 3 3 3 3 3 3 3 3 3 3 3 3 3 3 3 3 3 3 3 3 3 3 3 3 3 3 3 3 3 3 3 3 3 3 3 3 3 3 3 3 3 3 3 3 3 3 3 3 3 3 3 3 3 3 3 3 3 3 3 3 3 3 3 3 3 3 3 3 3 </DataArray>
</Cells>
<PointData  Scalars="f_13"> 
<DataArray  type="Float64"  Name="f_13"  format="ascii">1.1643420758261493e+03  1.1789430699832360e+03  1.1949308889992692e+03  1.2123804326547342e+03  1.2313551943835625e+03  1.2519121958074049e+03  1.2741058549292306e+03  1.2979910125261333e+03  1.3236252980973445e+03  1.3510709818667967e+03  1.3803964311032091e+03  1.4116772660985050e+03  1.4449972925239806e+03  1.4804492717654728e+03  1.5181355785879236e+03  1.5581687855831781e+03  1.6006722058945757e+03  1.6457804193447062e+03  1.6936398020351337e+03  1.7444090755040738e+03  1.7982598884248746e+03  1.8553774414427185e+03  1.9159611639448726e+03  1.9802254502298149e+03  2.0484004615909380e+03  2.1207330001858422e+03  2.1974874601608144e+03  2.2789468612917617e+03  2.3654139703469941e+03  2.4572125154411301e+03  2.5546884988069096e+03  2.6582116136419613e+03  2.7681767709741762e+03  2.8850057428191826e+03  3.0091489282663338e+03  3.1410872495173835e+03  3.2813341853082397e+03  3.4304379495634744e+03  3.5889838235612651e+03  3.7575966503191357e+03  3.9369435003446652e+03  4.1277365183266065e+03  4.3307359607667513e+03  4.5467534349672733e+03  4.7766553501873905e+03  5.0213665921614738e+03  5.2818744325217094e+03  5.5592326849843266e+03  5.8545661204301705e+03  6.1690751532268814e+03  6.5040408112884852e+03  6.8608300024330592e+03  7.2409010895624151e+03  7.6458097870278471e+03  8.0772153902379387e+03  8.5368873500789086e+03  9.0267122030212176e+03  9.5487008668392482e+03  1.0104996310629575e+04  1.0697881606227638e+04  1.1329788366137436e+04  1.2003305570642775e+04  1.2721188783797028e+04  1.3486369754422698e+04  1.4301966394023371e+04  1.5171293118553005e+04  1.6097871535242666e+04  1.7085441449109756e+04  1.8137972156351625e+04  1.9259673983573608e+04  2.0455010022796912e+04  2.1728708002586263e+04  2.3085772225692683e+04  2.4531495493725091e+04  2.6071470930143005e+04  2.7711603605145294e+04  2.9458121860985895e+04  3.1317588235459520e+04  3.3296909886876550e+04  3.5403348438557005e+04  3.7644529188315923e+04  4.0028449673211602e+04  4.2563487647876733e+04  4.5258408633502542e+04  4.8122373333350552e+04  5.1164945401201127e+04  5.4396100305893764e+04  5.7826236375962224e+04  6.1466189555317389e+04  6.5327253980951573e+04  6.9421211239706754e+04  7.3760372113523132e+04  7.8357635830387182e+04  8.3226573361405695e+04  8.8381543216422724e+04  9.3837850581450548e+04  9.9611963622036536e+04  1.0572180448555730e+05  1.1218713714508170e+05  1.1903007995619433e+05  1.2627577792473188e+05  </DataArray> 
</PointData> 
</Piece>
</UnstructuredGrid>
</VTKFile>