<?xml version="1.0"?>
<VTKFile type="UnstructuredGrid"  version="0.1"  >
<UnstructuredGrid>
<Piece  NumberOfPoints="101" NumberOfCells="100">
<Points>
<DataArray  type="Float64"  NumberOfComponents="3"  format="ascii">0 0 0  0.01 0 0  0.02 0 0  0.03 0 0  0.04 0 0  0.05 0 0  0.06 0 0  0.07000000000000001 0 0  0.08 0 0  0.09 0 0  0.1 0 0  0.11 0 0  0.12 0 0  0.13 0 0  0.14 0 0  0.15 0 0  0.16 0 0  0.17 0 0  0.18 0 0  0.19 0 0  0.2 0 0  0.21 0 0  0.22 0 0  0.23 0 0  0.24 0 0  0.25 0 0  0.26 0 0  0.27 0 0  0.28 0 0  0.29 0 0  0.3 0 0  0.31 0 0  0.32 0 0  0.33 0 0  0.34 0 0  0.35 0 0  0.36 0 0  0.37 0 0  0.38 0 0  0.39 0 0  0.4 0 0  0.41 0 0  0.42 0 0  0.43 0 0  0.44 0 0  0.45 0 0  0.46 0 0  0.47 0 0  0.48 0 0  0.49 0 0  0.5 0 0  0.51 0 0  0.52 0 0  0.53 0 0  0.54 0 0  0.55 0 0  0.5600000000000001 0 0  0.57 0 0  0.58 0 0  0.59 0 0  0.6 0 0  0.61 0 0  0.62 0 0  0.63 0 0  0.64 0 0  0.65 0 0  0.66 0 0  0.67 0 0  0.68 0 0  0.6899999999999999 0 0  0.7 0 0  0.71 0 0  0.72 0 0  0.73 0 0  0.74 0 0  0.75 0 0  0.76 0 0  0.77 0 0  0.78 0 0  0.79 0 0  0.8 0 0  0.8100000000000001 0 0  0.82 0 0  0.83 0 0  0.84 0 0  0.85 0 0  0.86 0 0  0.87 0 0  0.88 0 0  0.89 0 0  0.9 0 0  0.91 0 0  0.92 0 0  0.93 0 0  0.9399999999999999 0 0  0.95 0 0  0.96 0 0  0.97 0 0  0.98 0 0  0.99 0 0  1 0 0  </DataArray>
</Points>
<Cells>
<DataArray  type="UInt32"  Name="connectivity"  format="ascii">0 1  1 2  2 3  3 4  4 5  5 6  6 7  7 8  8 9  9 10  10 11  11 12  12 13  13 14  14 15  15 16  16 17  17 18  18 19  19 20  20 21  21 22  22 23  23 24  24 25  25 26  26 27  27 28  28 29  29 30  30 31  31 32  32 33  33 34  34 35  35 36  36 37  37 38  38 39  39 40  40 41  41 42  42 43  43 44  44 45  45 46  46 47  47 48  48 49  49 50  50 51  51 52  52 53  53 54  54 55  55 56  56 57  57 58  58 59  59 60  60 61  61 62  62 63  63 64  64 65  65 66  66 67  67 68  68 69  69 70  70 71  71 72  72 73  73 74  74 75  75 76  76 77  77 78  78 79  79 80  80 81  81 82  82 83  83 84  84 85  85 86  86 87  87 88  88 89  89 90  90 91  91 92  92 93  93 94  94 95  95 96  96 97  97 98  98 99  99 100  </DataArray>
<DataArray  type="UInt32"  Name="offsets"  format="ascii">2 4 6 8 10 12 14 16 18 20 22 24 26 28 30 32 34 36 38 40 42 44 46 48 50 52 54 56 58 60 62 64 66 68 70 72 74 76 78 80 82 84 86 88 90 92 94 96 98 100 102 104 106 108 110 112 114 116 118 120 122 124 126 128 130 132 134 136 138 140 142 144 146 148 150 152 154 156 158 160 162 164 166 168 170 172 174 176 178 180 182 184 186 188 190 192 194 196 198 200 </DataArray>
<DataArray  type="UInt8"  Name="types"  format="ascii">3 3 3 3 3 3 3 3 3 3 3 3 3 3 3 3 3 3 3 3 3 3 3 3 3 3 3 3 3 3 3 3 3 3 3 3 3 3 3 3 3 3 3 3 3 3 3 3 3 3 3 3 3 3 3 3 3 3 3 3 3 3 3 3 3 3 3 3 3 3 3 3 3 3 3 3 3 3 3 3 3 3 3 3 3 3 3 3 3 3 3 3 3 3 3 3 3 3 3 3 </DataArray>
</Cells>
<PointData  Scalars="f_16"> 
<DataArray  type="Float64"  Name="f_16"  format="ascii">-1.4017581515996616e-01  -1.5469588987118096e-01  -1.6916068410517562e-01  -1.8357650288952621e-01  -1.9795227721451264e-01  -2.1229886281926480e-01  -2.2662851090694427e-01  -2.4095448567362213e-01  -2.5529080069806181e-01  -2.6965204759577066e-01  -2.8405329368066567e-01  -2.9851002939672389e-01  -3.1303815025352144e-01  -3.2765396155744525e-01  -3.4237419722564549e-01  -3.5721604637846321e-01  -3.7219718327063311e-01  -3.8733579751520364e-01  -4.0265062255942952e-01  -4.1816096106905309e-01  -4.3388670633817761e-01  -4.4984835912737176e-01  -4.6606703949265732e-01  -4.8256449324229889e-01  -4.9936309267757190e-01  -5.1648583126122505e-01  -5.3395631183048020e-01  -5.5179872794274221e-01  -5.7003783792072538e-01  -5.8869893115576566e-01  -6.0780778623798204e-01  -6.2739062051248851e-01  -6.4747403071374987e-01  -6.6808492440622746e-01  -6.8925044205877006e-01  -7.1099786970217305e-01  -7.3335454226272301e-01  -7.5634773782741294e-01  -7.8000456327623346e-01  -8.0435183191006221e-01  -8.2941593390502233e-01  -8.5522270063075834e-01  -8.8179726407519088e-01  -9.0916391281562692e-01  -9.3734594615882816e-01  -9.6636552823370525e-01  -9.9624354395269277e-01  -1.0269994588548215e+00  -1.0586511848990015e+00  -1.0912149542849787e+00  -1.1247052033381575e+00  -1.1591344684008720e+00  -1.1945132955266093e+00  -1.2308501655769177e+00  -1.2681514360772381e+00  -1.3064213009035908e+00  -1.3456617685546677e+00  -1.3858726594227704e+00  -1.4270516221225598e+00  -1.4691941685798939e+00  -1.5122937272353913e+00  -1.5563417133896178e+00  -1.6013276154190788e+00  -1.6472390953331697e+00  -1.6940621019290201e+00  -1.7417809946388616e+00  -1.7903786760562792e+00  -1.8398367310743697e+00  -1.8901355705694054e+00  -1.9412545776151175e+00  -1.9931722543105770e+00  -2.0458663674429349e+00  -2.0993140913779897e+00  -2.1534921467688952e+00  -2.2083769338880757e+00  -2.2639446596110613e+00  -2.3201714573048946e+00  -2.3770334990893986e+00  -2.4345071001384455e+00  -2.4925688148620102e+00  -2.5511955249498093e+00  -2.6103645193553286e+00  -2.6700535663465170e+00  -2.7302409777377936e+00  -2.7909056653386317e+00  -2.8520271894985076e+00  -2.9135857993885299e+00  -2.9755624643302716e+00  -3.0379388950582680e+00  -3.1006975532847258e+00  -3.1638216473305096e+00  -3.2272951109129968e+00  -3.2911025614720906e+00  -3.3552292337254586e+00  -3.4196608835592284e+00  -3.4843836570098006e+00  -3.5493839191639571e+00  -3.6146480385647708e+00  -3.6801621245327616e+00  -3.7459117182092991e+00  -3.8118814438037036e+00  </DataArray> 
</PointData> 
</Piece>
</UnstructuredGrid>
</VTKFile>