<?xml version="1.0"?>
<VTKFile type="UnstructuredGrid"  version="0.1"  >
<UnstructuredGrid>
<Piece  NumberOfPoints="101" NumberOfCells="100">
<Points>
<DataArray  type="Float64"  NumberOfComponents="3"  format="ascii">0 0 0  0.01 0 0  0.02 0 0  0.03 0 0  0.04 0 0  0.05 0 0  0.06 0 0  0.07000000000000001 0 0  0.08 0 0  0.09 0 0  0.1 0 0  0.11 0 0  0.12 0 0  0.13 0 0  0.14 0 0  0.15 0 0  0.16 0 0  0.17 0 0  0.18 0 0  0.19 0 0  0.2 0 0  0.21 0 0  0.22 0 0  0.23 0 0  0.24 0 0  0.25 0 0  0.26 0 0  0.27 0 0  0.28 0 0  0.29 0 0  0.3 0 0  0.31 0 0  0.32 0 0  0.33 0 0  0.34 0 0  0.35 0 0  0.36 0 0  0.37 0 0  0.38 0 0  0.39 0 0  0.4 0 0  0.41 0 0  0.42 0 0  0.43 0 0  0.44 0 0  0.45 0 0  0.46 0 0  0.47 0 0  0.48 0 0  0.49 0 0  0.5 0 0  0.51 0 0  0.52 0 0  0.53 0 0  0.54 0 0  0.55 0 0  0.5600000000000001 0 0  0.57 0 0  0.58 0 0  0.59 0 0  0.6 0 0  0.61 0 0  0.62 0 0  0.63 0 0  0.64 0 0  0.65 0 0  0.66 0 0  0.67 0 0  0.68 0 0  0.6899999999999999 0 0  0.7 0 0  0.71 0 0  0.72 0 0  0.73 0 0  0.74 0 0  0.75 0 0  0.76 0 0  0.77 0 0  0.78 0 0  0.79 0 0  0.8 0 0  0.8100000000000001 0 0  0.82 0 0  0.83 0 0  0.84 0 0  0.85 0 0  0.86 0 0  0.87 0 0  0.88 0 0  0.89 0 0  0.9 0 0  0.91 0 0  0.92 0 0  0.93 0 0  0.9399999999999999 0 0  0.95 0 0  0.96 0 0  0.97 0 0  0.98 0 0  0.99 0 0  1 0 0  </DataArray>
</Points>
<Cells>
<DataArray  type="UInt32"  Name="connectivity"  format="ascii">0 1  1 2  2 3  3 4  4 5  5 6  6 7  7 8  8 9  9 10  10 11  11 12  12 13  13 14  14 15  15 16  16 17  17 18  18 19  19 20  20 21  21 22  22 23  23 24  24 25  25 26  26 27  27 28  28 29  29 30  30 31  31 32  32 33  33 34  34 35  35 36  36 37  37 38  38 39  39 40  40 41  41 42  42 43  43 44  44 45  45 46  46 47  47 48  48 49  49 50  50 51  51 52  52 53  53 54  54 55  55 56  56 57  57 58  58 59  59 60  60 61  61 62  62 63  63 64  64 65  65 66  66 67  67 68  68 69  69 70  70 71  71 72  72 73  73 74  74 75  75 76  76 77  77 78  78 79  79 80  80 81  81 82  82 83  83 84  84 85  85 86  86 87  87 88  88 89  89 90  90 91  91 92  92 93  93 94  94 95  95 96  96 97  97 98  98 99  99 100  </DataArray>
<DataArray  type="UInt32"  Name="offsets"  format="ascii">2 4 6 8 10 12 14 16 18 20 22 24 26 28 30 32 34 36 38 40 42 44 46 48 50 52 54 56 58 60 62 64 66 68 70 72 74 76 78 80 82 84 86 88 90 92 94 96 98 100 102 104 106 108 110 112 114 116 118 120 122 124 126 128 130 132 134 136 138 140 142 144 146 148 150 152 154 156 158 160 162 164 166 168 170 172 174 176 178 180 182 184 186 188 190 192 194 196 198 200 </DataArray>
<DataArray  type="UInt8"  Name="types"  format="ascii">3 3 3 3 3 3 3 3 3 3 3 3 3 3 3 3 3 3 3 3 3 3 3 3 3 3 3 3 3 3 3 3 3 3 3 3 3 3 3 3 3 3 3 3 3 3 3 3 3 3 3 3 3 3 3 3 3 3 3 3 3 3 3 3 3 3 3 3 3 3 3 3 3 3 3 3 3 3 3 3 3 3 3 3 3 3 3 3 3 3 3 3 3 3 3 3 3 3 3 3 </DataArray>
</Cells>
<PointData  Scalars="f_16"> 
<DataArray  type="Float64"  Name="f_16"  format="ascii">-3.0576445325378726e-01  -3.2487967983455873e-01  -3.4599347695278920e-01  -3.6900703198637347e-01  -3.9383300577446712e-01  -4.2039346511848313e-01  -4.4861816836305501e-01  -4.7844317470075071e-01  -5.0980973654934436e-01  -5.4266343017306340e-01  -5.7695348030256222e-01  -6.1263223803198974e-01  -6.4965477638676361e-01  -6.8797857370609350e-01  -7.2756326072603261e-01  -7.6837041257841832e-01  -8.1036337161346872e-01  -8.5350709091145671e-01  -8.9776799156100517e-01  -9.4311382929266063e-01  -9.8951356794292011e-01  -1.0369372585771233e+00  -1.0853559240141546e+00  -1.1347414490620733e+00  -1.1850664770732147e+00  -1.2363043135306730e+00  -1.2884288373445190e+00  -1.3414144204134915e+00  -1.3952358558338176e+00  -1.4498682949398043e+00  -1.5052871931617915e+00  -1.5614682645004598e+00  -1.6183874442518364e+00  -1.6760208594800370e+00  -1.7343448066272749e+00  -1.7933357355730835e+00  -1.8529702394056262e+00  -1.9132250491448883e+00  -1.9740770326573100e+00  -2.0355031970205277e+00  -2.0974806936317574e+00  -2.1599868254005088e+00  -2.2229990554224424e+00  -2.2864950165933240e+00  -2.3504525216875773e+00  -2.4148495734925683e+00  -2.4796643746556768e+00  -2.5448753369648482e+00  -2.6104610898435503e+00  -2.6764004878970056e+00  -2.7426726173976808e+00  -2.8092568016439503e+00  -2.8761326051665006e+00  -2.9432798367924500e+00  -3.0106785516074890e+00  -3.0783090518819098e+00  -3.1461518870475058e+00  -3.2141878528293808e+00  -3.2823979896501432e+00  -3.3507635804340894e+00  -3.4192661479463000e+00  -3.4878874518062304e+00  -3.5566094853177757e+00  -3.6254144722579693e+00  -3.6942848637645564e+00  -3.7632033354585186e+00  -3.8321527849310275e+00  -3.9011163297147973e+00  -3.9700773058467491e+00  -4.0390192671113976e+00  -4.1079259850312013e+00  -4.1767814496397033e+00  -4.2455698710336947e+00  -4.3142756816493675e+00  -4.3828835391415426e+00  -4.4513783296609057e+00  -4.5197451712175036e+00  -4.5879694166844551e+00  -4.6560366558279229e+00  -4.7239327155412045e+00  -4.7916436572043395e+00  -4.8591557697773684e+00  -4.9264555568555526e+00  -4.9935297154580649e+00  -5.0603651037768644e+00  -5.1269486944683056e+00  -5.1932675093153398e+00  -5.2593085302124853e+00  -5.3250585804202268e+00  -5.3905041688937905e+00  -5.4556312892106149e+00  -5.5204251632036243e+00  -5.5848699178619832e+00  -5.6489481824032737e+00  -5.7126405906748792e+00  -5.7759251722396616e+00  -5.8387766136803529e+00  -5.9011653698602045e+00  -5.9630566031429684e+00  -6.0244089269286496e+00  -6.0851729282991673e+00  </DataArray> 
</PointData> 
</Piece>
</UnstructuredGrid>
</VTKFile>