<?xml version="1.0"?>
<VTKFile type="UnstructuredGrid"  version="0.1"  >
<UnstructuredGrid>
<Piece  NumberOfPoints="101" NumberOfCells="100">
<Points>
<DataArray  type="Float64"  NumberOfComponents="3"  format="ascii">0 0 0  0.01 0 0  0.02 0 0  0.03 0 0  0.04 0 0  0.05 0 0  0.06 0 0  0.07000000000000001 0 0  0.08 0 0  0.09 0 0  0.1 0 0  0.11 0 0  0.12 0 0  0.13 0 0  0.14 0 0  0.15 0 0  0.16 0 0  0.17 0 0  0.18 0 0  0.19 0 0  0.2 0 0  0.21 0 0  0.22 0 0  0.23 0 0  0.24 0 0  0.25 0 0  0.26 0 0  0.27 0 0  0.28 0 0  0.29 0 0  0.3 0 0  0.31 0 0  0.32 0 0  0.33 0 0  0.34 0 0  0.35 0 0  0.36 0 0  0.37 0 0  0.38 0 0  0.39 0 0  0.4 0 0  0.41 0 0  0.42 0 0  0.43 0 0  0.44 0 0  0.45 0 0  0.46 0 0  0.47 0 0  0.48 0 0  0.49 0 0  0.5 0 0  0.51 0 0  0.52 0 0  0.53 0 0  0.54 0 0  0.55 0 0  0.5600000000000001 0 0  0.57 0 0  0.58 0 0  0.59 0 0  0.6 0 0  0.61 0 0  0.62 0 0  0.63 0 0  0.64 0 0  0.65 0 0  0.66 0 0  0.67 0 0  0.68 0 0  0.6899999999999999 0 0  0.7 0 0  0.71 0 0  0.72 0 0  0.73 0 0  0.74 0 0  0.75 0 0  0.76 0 0  0.77 0 0  0.78 0 0  0.79 0 0  0.8 0 0  0.8100000000000001 0 0  0.82 0 0  0.83 0 0  0.84 0 0  0.85 0 0  0.86 0 0  0.87 0 0  0.88 0 0  0.89 0 0  0.9 0 0  0.91 0 0  0.92 0 0  0.93 0 0  0.9399999999999999 0 0  0.95 0 0  0.96 0 0  0.97 0 0  0.98 0 0  0.99 0 0  1 0 0  </DataArray>
</Points>
<Cells>
<DataArray  type="UInt32"  Name="connectivity"  format="ascii">0 1  1 2  2 3  3 4  4 5  5 6  6 7  7 8  8 9  9 10  10 11  11 12  12 13  13 14  14 15  15 16  16 17  17 18  18 19  19 20  20 21  21 22  22 23  23 24  24 25  25 26  26 27  27 28  28 29  29 30  30 31  31 32  32 33  33 34  34 35  35 36  36 37  37 38  38 39  39 40  40 41  41 42  42 43  43 44  44 45  45 46  46 47  47 48  48 49  49 50  50 51  51 52  52 53  53 54  54 55  55 56  56 57  57 58  58 59  59 60  60 61  61 62  62 63  63 64  64 65  65 66  66 67  67 68  68 69  69 70  70 71  71 72  72 73  73 74  74 75  75 76  76 77  77 78  78 79  79 80  80 81  81 82  82 83  83 84  84 85  85 86  86 87  87 88  88 89  89 90  90 91  91 92  92 93  93 94  94 95  95 96  96 97  97 98  98 99  99 100  </DataArray>
<DataArray  type="UInt32"  Name="offsets"  format="ascii">2 4 6 8 10 12 14 16 18 20 22 24 26 28 30 32 34 36 38 40 42 44 46 48 50 52 54 56 58 60 62 64 66 68 70 72 74 76 78 80 82 84 86 88 90 92 94 96 98 100 102 104 106 108 110 112 114 116 118 120 122 124 126 128 130 132 134 136 138 140 142 144 146 148 150 152 154 156 158 160 162 164 166 168 170 172 174 176 178 180 182 184 186 188 190 192 194 196 198 200 </DataArray>
<DataArray  type="UInt8"  Name="types"  format="ascii">3 3 3 3 3 3 3 3 3 3 3 3 3 3 3 3 3 3 3 3 3 3 3 3 3 3 3 3 3 3 3 3 3 3 3 3 3 3 3 3 3 3 3 3 3 3 3 3 3 3 3 3 3 3 3 3 3 3 3 3 3 3 3 3 3 3 3 3 3 3 3 3 3 3 3 3 3 3 3 3 3 3 3 3 3 3 3 3 3 3 3 3 3 3 3 3 3 3 3 3 </DataArray>
</Cells>
<PointData  Scalars="f_16"> 
<DataArray  type="Float64"  Name="f_16"  format="ascii">-4.1403922188957898e-01  -4.3734790486108310e-01  -4.6106927712240331e-01  -4.8521771678563980e-01  -5.0980019901562545e-01  -5.3482020184687451e-01  -5.6028034372578261e-01  -5.8618409018228390e-01  -6.1253678361248498e-01  -6.3934618718514347e-01  -6.6662268604972408e-01  -6.9437925259038380e-01  -7.2263125472892686e-01  -7.5139616520924835e-01  -7.8069321385931778e-01  -8.1054301284176411e-01  -8.4096717595438508e-01  -8.7198794641551158e-01  -9.0362784271272523e-01  -9.3590932857738063e-01  -9.6885451063904127e-01  -1.0024848655564476e+00  -1.0368209972174494e+00  -1.0718824237982112e+00  -1.1076873939568306e+00  -1.1442527311212896e+00  -1.1815937046513652e+00  -1.2197239265607618e+00  -1.2586552724445925e+00  -1.2983978252440525e+00  -1.3389598404783005e+00  -1.3803477315728980e+00  -1.4225660739090240e+00  -1.4656176262058720e+00  -1.5095033678303893e+00  -1.5542225506057208e+00  -1.5997727636652661e+00  -1.6461500098764668e+00  -1.6933487923407124e+00  -1.7413622094661680e+00  -1.7901820571114617e+00  -1.8397989363119500e+00  -1.8902023651278530e+00  -1.9413808931953245e+00  -1.9933222176171701e+00  -2.0460132988984365e+00  -2.0994404757119582e+00  -2.1535895773681717e+00  -2.2084460329598334e+00  -2.2639949762532798e+00  -2.3202213455011003e+00  -2.3771099774541287e+00  -2.4346456949513491e+00  -2.4928133875626735e+00  -2.5515980848499544e+00  -2.6109850218948112e+00  -2.6709596968169498e+00  -2.7315079200732058e+00  -2.7926158553854346e+00  -2.8542700521948738e+00  -2.9164574695824514e+00  -2.9791654916295962e+00  -3.0423819342237843e+00  -3.1060950433388852e+00  -3.1702934848441102e+00  -3.2349663259190695e+00  -3.3001030081782403e+00  -3.3656933126383466e+00  -3.4317273166991469e+00  -3.4981953433543795e+00  -3.5650879029075795e+00  -3.6323956275396752e+00  -3.7001091991641561e+00  -3.7682192711135483e+00  -3.8367163843303813e+00  -3.9055908788891509e+00  -3.9748328018552890e+00  -4.0444318126955183e+00  -4.1143770876938337e+00  -4.1846572251020815e+00  -4.2552601530677245e+00  -4.3261730427390264e+00  -4.3973822293565643e+00  -4.4688731446089633e+00  -4.5406302640725338e+00  -4.6126370741862575e+00  -4.6848760639577689e+00  -4.7573287474830588e+00  -4.8299757244321215e+00  -4.9027967869564657e+00  -4.9757710830790209e+00  -5.0488773486175784e+00  -5.1220942221770587e+00  -5.1954006608579517e+00  -5.2687764782336277e+00  -5.3422030310489514e+00  -5.4156640872253217e+00  -5.4891469153990817e+00  -5.5626436456766610e+00  -5.6361529628767535e+00  -5.7096822075326603e+00  </DataArray> 
</PointData> 
</Piece>
</UnstructuredGrid>
</VTKFile>