<?xml version="1.0"?>
<VTKFile type="UnstructuredGrid"  version="0.1"  >
<UnstructuredGrid>
<Piece  NumberOfPoints="101" NumberOfCells="100">
<Points>
<DataArray  type="Float64"  NumberOfComponents="3"  format="ascii">0 0 0  0.01 0 0  0.02 0 0  0.03 0 0  0.04 0 0  0.05 0 0  0.06 0 0  0.07000000000000001 0 0  0.08 0 0  0.09 0 0  0.1 0 0  0.11 0 0  0.12 0 0  0.13 0 0  0.14 0 0  0.15 0 0  0.16 0 0  0.17 0 0  0.18 0 0  0.19 0 0  0.2 0 0  0.21 0 0  0.22 0 0  0.23 0 0  0.24 0 0  0.25 0 0  0.26 0 0  0.27 0 0  0.28 0 0  0.29 0 0  0.3 0 0  0.31 0 0  0.32 0 0  0.33 0 0  0.34 0 0  0.35 0 0  0.36 0 0  0.37 0 0  0.38 0 0  0.39 0 0  0.4 0 0  0.41 0 0  0.42 0 0  0.43 0 0  0.44 0 0  0.45 0 0  0.46 0 0  0.47 0 0  0.48 0 0  0.49 0 0  0.5 0 0  0.51 0 0  0.52 0 0  0.53 0 0  0.54 0 0  0.55 0 0  0.5600000000000001 0 0  0.57 0 0  0.58 0 0  0.59 0 0  0.6 0 0  0.61 0 0  0.62 0 0  0.63 0 0  0.64 0 0  0.65 0 0  0.66 0 0  0.67 0 0  0.68 0 0  0.6899999999999999 0 0  0.7 0 0  0.71 0 0  0.72 0 0  0.73 0 0  0.74 0 0  0.75 0 0  0.76 0 0  0.77 0 0  0.78 0 0  0.79 0 0  0.8 0 0  0.8100000000000001 0 0  0.82 0 0  0.83 0 0  0.84 0 0  0.85 0 0  0.86 0 0  0.87 0 0  0.88 0 0  0.89 0 0  0.9 0 0  0.91 0 0  0.92 0 0  0.93 0 0  0.9399999999999999 0 0  0.95 0 0  0.96 0 0  0.97 0 0  0.98 0 0  0.99 0 0  1 0 0  </DataArray>
</Points>
<Cells>
<DataArray  type="UInt32"  Name="connectivity"  format="ascii">0 1  1 2  2 3  3 4  4 5  5 6  6 7  7 8  8 9  9 10  10 11  11 12  12 13  13 14  14 15  15 16  16 17  17 18  18 19  19 20  20 21  21 22  22 23  23 24  24 25  25 26  26 27  27 28  28 29  29 30  30 31  31 32  32 33  33 34  34 35  35 36  36 37  37 38  38 39  39 40  40 41  41 42  42 43  43 44  44 45  45 46  46 47  47 48  48 49  49 50  50 51  51 52  52 53  53 54  54 55  55 56  56 57  57 58  58 59  59 60  60 61  61 62  62 63  63 64  64 65  65 66  66 67  67 68  68 69  69 70  70 71  71 72  72 73  73 74  74 75  75 76  76 77  77 78  78 79  79 80  80 81  81 82  82 83  83 84  84 85  85 86  86 87  87 88  88 89  89 90  90 91  91 92  92 93  93 94  94 95  95 96  96 97  97 98  98 99  99 100  </DataArray>
<DataArray  type="UInt32"  Name="offsets"  format="ascii">2 4 6 8 10 12 14 16 18 20 22 24 26 28 30 32 34 36 38 40 42 44 46 48 50 52 54 56 58 60 62 64 66 68 70 72 74 76 78 80 82 84 86 88 90 92 94 96 98 100 102 104 106 108 110 112 114 116 118 120 122 124 126 128 130 132 134 136 138 140 142 144 146 148 150 152 154 156 158 160 162 164 166 168 170 172 174 176 178 180 182 184 186 188 190 192 194 196 198 200 </DataArray>
<DataArray  type="UInt8"  Name="types"  format="ascii">3 3 3 3 3 3 3 3 3 3 3 3 3 3 3 3 3 3 3 3 3 3 3 3 3 3 3 3 3 3 3 3 3 3 3 3 3 3 3 3 3 3 3 3 3 3 3 3 3 3 3 3 3 3 3 3 3 3 3 3 3 3 3 3 3 3 3 3 3 3 3 3 3 3 3 3 3 3 3 3 3 3 3 3 3 3 3 3 3 3 3 3 3 3 3 3 3 3 3 3 </DataArray>
</Cells>
<PointData  Scalars="f_16"> 
<DataArray  type="Float64"  Name="f_16"  format="ascii">-6.5625213884443923e-02  -7.7998743236771473e-02  -9.0824273503568614e-02  -1.0402089313563335e-01  -1.1752534096261992e-01  -1.3128894251423145e-01  -1.4527506665927128e-01  -1.5945702368433151e-01  -1.7381633489026169e-01  -1.8834131287272485e-01  -2.0302590025576836e-01  -2.1786872246210306e-01  -2.3287231701716599e-01  -2.4804250789062318e-01  -2.6338789853120387e-01  -2.7891946162857206e-01  -2.9465020732895708e-01  -3.1059491472884099e-01  -3.2676991405709355e-01  -3.4319290910670147e-01  -3.5988283126030307e-01  -3.7685971792833539e-01  -3.9414460943611662e-01  -4.1175945940092562e-01  -4.2972705447011517e-01  -4.4807093997898778e-01  -4.6681534866024693e-01  -4.8598513001878335e-01  -5.0560567839617243e-01  -5.2570285810516026e-01  -5.4630292432938810e-01  -5.6743243876892413e-01  -5.8911817927687837e-01  -6.1138704298342617e-01  -6.3426594264608704e-01  -6.5778169620242710e-01  -6.8196090973523049e-01  -7.0682985429083300e-01  -7.3241433721759430e-01  -7.5873956891099292e-01  -7.8583002606110386e-01  -8.1370931269289204e-01  -8.4240002046482987e-01  -8.7192358984141960e-01  -9.0230017387481576e-01  -9.3354850641462706e-01  -9.6568577660849875e-01  -9.9872751155542461e-01  -1.0326874689263617e+00  -1.0675775412714750e+00  -1.1034076735907539e+00  -1.1401857955570818e+00  -1.1779177695521446e+00  -1.2166073554115473e+00  -1.2562561924833877e+00  -1.2968637992927075e+00  -1.3384275907819869e+00  -1.3809429127748312e+00  -1.4244030929959037e+00  -1.4687995076841474e+00  -1.5141216625667571e+00  -1.5603572867251707e+00  -1.6074924376870952e+00  -1.6555116159239398e+00  -1.7043978868228791e+00  -1.7541330081371100e+00  -1.8046975608949680e+00  -1.8560710817650317e+00  -1.9082321949255479e+00  -1.9611587415665956e+00  -2.0148279052559230e+00  -2.0692163315172429e+00  -2.1243002400958684e+00  -2.1800555285136940e+00  -2.2364578656369876e+00  -2.2934827740897976e+00  -2.3511057004372984e+00  -2.4093020721319318e+00  -2.4680473402562537e+00  -2.5273170071060798e+00  -2.5870866376324488e+00  -2.6473318536979842e+00  -2.7080283099995612e+00  -2.7691516503616276e+00  -2.8306774429094621e+00  -2.8925810923845083e+00  -2.9548377275583304e+00  -3.0174220613291141e+00  -3.0803082206328094e+00  -3.1434695427530253e+00  -3.2068783339461735e+00  -3.2705055854788347e+00  -3.3343206411586719e+00  -3.3982908091687749e+00  -3.4623809094073468e+00  -3.5265527454821513e+00  -3.5907644878674039e+00  -3.6549699513067901e+00  -3.7191177450818826e+00  -3.7831502689147904e+00  -3.8470025195723667e+00  </DataArray> 
</PointData> 
</Piece>
</UnstructuredGrid>
</VTKFile>