<?xml version="1.0"?>
<VTKFile type="UnstructuredGrid"  version="0.1"  >
<UnstructuredGrid>
<Piece  NumberOfPoints="101" NumberOfCells="100">
<Points>
<DataArray  type="Float64"  NumberOfComponents="3"  format="ascii">0 0 0  0.01 0 0  0.02 0 0  0.03 0 0  0.04 0 0  0.05 0 0  0.06 0 0  0.07000000000000001 0 0  0.08 0 0  0.09 0 0  0.1 0 0  0.11 0 0  0.12 0 0  0.13 0 0  0.14 0 0  0.15 0 0  0.16 0 0  0.17 0 0  0.18 0 0  0.19 0 0  0.2 0 0  0.21 0 0  0.22 0 0  0.23 0 0  0.24 0 0  0.25 0 0  0.26 0 0  0.27 0 0  0.28 0 0  0.29 0 0  0.3 0 0  0.31 0 0  0.32 0 0  0.33 0 0  0.34 0 0  0.35 0 0  0.36 0 0  0.37 0 0  0.38 0 0  0.39 0 0  0.4 0 0  0.41 0 0  0.42 0 0  0.43 0 0  0.44 0 0  0.45 0 0  0.46 0 0  0.47 0 0  0.48 0 0  0.49 0 0  0.5 0 0  0.51 0 0  0.52 0 0  0.53 0 0  0.54 0 0  0.55 0 0  0.5600000000000001 0 0  0.57 0 0  0.58 0 0  0.59 0 0  0.6 0 0  0.61 0 0  0.62 0 0  0.63 0 0  0.64 0 0  0.65 0 0  0.66 0 0  0.67 0 0  0.68 0 0  0.6899999999999999 0 0  0.7 0 0  0.71 0 0  0.72 0 0  0.73 0 0  0.74 0 0  0.75 0 0  0.76 0 0  0.77 0 0  0.78 0 0  0.79 0 0  0.8 0 0  0.8100000000000001 0 0  0.82 0 0  0.83 0 0  0.84 0 0  0.85 0 0  0.86 0 0  0.87 0 0  0.88 0 0  0.89 0 0  0.9 0 0  0.91 0 0  0.92 0 0  0.93 0 0  0.9399999999999999 0 0  0.95 0 0  0.96 0 0  0.97 0 0  0.98 0 0  0.99 0 0  1 0 0  </DataArray>
</Points>
<Cells>
<DataArray  type="UInt32"  Name="connectivity"  format="ascii">0 1  1 2  2 3  3 4  4 5  5 6  6 7  7 8  8 9  9 10  10 11  11 12  12 13  13 14  14 15  15 16  16 17  17 18  18 19  19 20  20 21  21 22  22 23  23 24  24 25  25 26  26 27  27 28  28 29  29 30  30 31  31 32  32 33  33 34  34 35  35 36  36 37  37 38  38 39  39 40  40 41  41 42  42 43  43 44  44 45  45 46  46 47  47 48  48 49  49 50  50 51  51 52  52 53  53 54  54 55  55 56  56 57  57 58  58 59  59 60  60 61  61 62  62 63  63 64  64 65  65 66  66 67  67 68  68 69  69 70  70 71  71 72  72 73  73 74  74 75  75 76  76 77  77 78  78 79  79 80  80 81  81 82  82 83  83 84  84 85  85 86  86 87  87 88  88 89  89 90  90 91  91 92  92 93  93 94  94 95  95 96  96 97  97 98  98 99  99 100  </DataArray>
<DataArray  type="UInt32"  Name="offsets"  format="ascii">2 4 6 8 10 12 14 16 18 20 22 24 26 28 30 32 34 36 38 40 42 44 46 48 50 52 54 56 58 60 62 64 66 68 70 72 74 76 78 80 82 84 86 88 90 92 94 96 98 100 102 104 106 108 110 112 114 116 118 120 122 124 126 128 130 132 134 136 138 140 142 144 146 148 150 152 154 156 158 160 162 164 166 168 170 172 174 176 178 180 182 184 186 188 190 192 194 196 198 200 </DataArray>
<DataArray  type="UInt8"  Name="types"  format="ascii">3 3 3 3 3 3 3 3 3 3 3 3 3 3 3 3 3 3 3 3 3 3 3 3 3 3 3 3 3 3 3 3 3 3 3 3 3 3 3 3 3 3 3 3 3 3 3 3 3 3 3 3 3 3 3 3 3 3 3 3 3 3 3 3 3 3 3 3 3 3 3 3 3 3 3 3 3 3 3 3 3 3 3 3 3 3 3 3 3 3 3 3 3 3 3 3 3 3 3 3 </DataArray>
</Cells>
<PointData  Scalars="f_16"> 
<DataArray  type="Float64"  Name="f_16"  format="ascii">-1.4964736602356193e-01  -1.6419588147977729e-01  -1.7824584828829743e-01  -1.9187487065361350e-01  -2.0514510514980699e-01  -2.1810697455772843e-01  -2.3080192017107576e-01  -2.4326445383633380e-01  -2.5552369875715403e-01  -2.6760455609669814e-01  -2.7952859681384351e-01  -2.9131475092066611e-01  -3.0297984658835975e-01  -3.1453903720799453e-01  -3.2600614414958706e-01  -3.3739393547917829e-01  -3.4871435550073643e-01  -3.5997871611080928e-01  -3.7119785816692330e-01  -3.8238228906763522e-01  -3.9354230129872519e-01  -4.0468807565391263e-01  -4.1582977207276073e-01  -4.2697761046947608e-01  -4.3814194349470953e-01  -4.4933332283639754e-01  -4.6056256039593635e-01  -4.7184078545233976e-01  -4.8317949873559840e-01  -4.9459062416177241e-01  -5.0608655882995546e-01  -5.1768022174076977e-01  -5.2938510156446206e-01  -5.4121530366186477e-01  -5.5318559644194409e-01  -5.6531145702425722e-01  -5.7760911606255960e-01  -5.9009560147641682e-01  -6.0278878073059350e-01  -6.1570740119702005e-01  -6.2887112803134371e-01  -6.4230057889578829e-01  -6.5601735476296452e-01  -6.7004406594244537e-01  -6.8440435238483799e-01  -6.9912289723870302e-01  -7.1422543256646120e-01  -7.2973873606935391e-01  -7.4569061763206934e-01  -7.6210989447876387e-01  -7.7902635373823770e-01  -7.9647070125159802e-01  -8.1447449552560069e-01  -8.3307006584367282e-01  -8.5229041369865999e-01  -8.7216909691024991e-01  -8.9274009603835824e-01  -9.1403766300267453e-01  -9.3609615216735553e-01  -9.5894983454556282e-01  -9.8263269621568250e-01  -1.0071782225112287e+00  -1.0326191700383034e+00  -1.0589873290737590e+00  -1.0863132793868748e+00  -1.1146261429882025e+00  -1.1439533377204780e+00  -1.1743203359468297e+00  -1.2057504328401756e+00  -1.2382645289158356e+00  -1.2718809314613624e+00  -1.3066151793923266e+00  -1.3424798957949795e+00  -1.3794846720076310e+00  -1.4176359865507802e+00  -1.4569371615573674e+00  -1.4973883586018877e+00  -1.5389866150096430e+00  -1.5817259208794285e+00  -1.6255973362123763e+00  -1.6705891467467229e+00  -1.7166870563936838e+00  -1.7638744135936386e+00  -1.8121324685029978e+00  -1.8614406577170053e+00  -1.9117769132668834e+00  -1.9631179929343374e+00  -2.0154398295356302e+00  -2.0687178977757190e+00  -2.1229275985983187e+00  -2.1780446627035754e+00  -2.2340455771221168e+00  -2.2909080414820537e+00  -2.3486114639529951e+00  -2.4071375108757307e+00  -2.4664707288709184e+00  -2.5265992638471189e+00  -2.5875157078680870e+00  -2.6492181123309675e+00  -2.7117112143303599e+00  -2.7750079323119401e+00  </DataArray> 
</PointData> 
</Piece>
</UnstructuredGrid>
</VTKFile>