<?xml version="1.0"?>
<VTKFile type="UnstructuredGrid"  version="0.1"  >
<UnstructuredGrid>
<Piece  NumberOfPoints="101" NumberOfCells="100">
<Points>
<DataArray  type="Float64"  NumberOfComponents="3"  format="ascii">0 0 0  0.01 0 0  0.02 0 0  0.03 0 0  0.04 0 0  0.05 0 0  0.06 0 0  0.07000000000000001 0 0  0.08 0 0  0.09 0 0  0.1 0 0  0.11 0 0  0.12 0 0  0.13 0 0  0.14 0 0  0.15 0 0  0.16 0 0  0.17 0 0  0.18 0 0  0.19 0 0  0.2 0 0  0.21 0 0  0.22 0 0  0.23 0 0  0.24 0 0  0.25 0 0  0.26 0 0  0.27 0 0  0.28 0 0  0.29 0 0  0.3 0 0  0.31 0 0  0.32 0 0  0.33 0 0  0.34 0 0  0.35 0 0  0.36 0 0  0.37 0 0  0.38 0 0  0.39 0 0  0.4 0 0  0.41 0 0  0.42 0 0  0.43 0 0  0.44 0 0  0.45 0 0  0.46 0 0  0.47 0 0  0.48 0 0  0.49 0 0  0.5 0 0  0.51 0 0  0.52 0 0  0.53 0 0  0.54 0 0  0.55 0 0  0.5600000000000001 0 0  0.57 0 0  0.58 0 0  0.59 0 0  0.6 0 0  0.61 0 0  0.62 0 0  0.63 0 0  0.64 0 0  0.65 0 0  0.66 0 0  0.67 0 0  0.68 0 0  0.6899999999999999 0 0  0.7 0 0  0.71 0 0  0.72 0 0  0.73 0 0  0.74 0 0  0.75 0 0  0.76 0 0  0.77 0 0  0.78 0 0  0.79 0 0  0.8 0 0  0.8100000000000001 0 0  0.82 0 0  0.83 0 0  0.84 0 0  0.85 0 0  0.86 0 0  0.87 0 0  0.88 0 0  0.89 0 0  0.9 0 0  0.91 0 0  0.92 0 0  0.93 0 0  0.9399999999999999 0 0  0.95 0 0  0.96 0 0  0.97 0 0  0.98 0 0  0.99 0 0  1 0 0  </DataArray>
</Points>
<Cells>
<DataArray  type="UInt32"  Name="connectivity"  format="ascii">0 1  1 2  2 3  3 4  4 5  5 6  6 7  7 8  8 9  9 10  10 11  11 12  12 13  13 14  14 15  15 16  16 17  17 18  18 19  19 20  20 21  21 22  22 23  23 24  24 25  25 26  26 27  27 28  28 29  29 30  30 31  31 32  32 33  33 34  34 35  35 36  36 37  37 38  38 39  39 40  40 41  41 42  42 43  43 44  44 45  45 46  46 47  47 48  48 49  49 50  50 51  51 52  52 53  53 54  54 55  55 56  56 57  57 58  58 59  59 60  60 61  61 62  62 63  63 64  64 65  65 66  66 67  67 68  68 69  69 70  70 71  71 72  72 73  73 74  74 75  75 76  76 77  77 78  78 79  79 80  80 81  81 82  82 83  83 84  84 85  85 86  86 87  87 88  88 89  89 90  90 91  91 92  92 93  93 94  94 95  95 96  96 97  97 98  98 99  99 100  </DataArray>
<DataArray  type="UInt32"  Name="offsets"  format="ascii">2 4 6 8 10 12 14 16 18 20 22 24 26 28 30 32 34 36 38 40 42 44 46 48 50 52 54 56 58 60 62 64 66 68 70 72 74 76 78 80 82 84 86 88 90 92 94 96 98 100 102 104 106 108 110 112 114 116 118 120 122 124 126 128 130 132 134 136 138 140 142 144 146 148 150 152 154 156 158 160 162 164 166 168 170 172 174 176 178 180 182 184 186 188 190 192 194 196 198 200 </DataArray>
<DataArray  type="UInt8"  Name="types"  format="ascii">3 3 3 3 3 3 3 3 3 3 3 3 3 3 3 3 3 3 3 3 3 3 3 3 3 3 3 3 3 3 3 3 3 3 3 3 3 3 3 3 3 3 3 3 3 3 3 3 3 3 3 3 3 3 3 3 3 3 3 3 3 3 3 3 3 3 3 3 3 3 3 3 3 3 3 3 3 3 3 3 3 3 3 3 3 3 3 3 3 3 3 3 3 3 3 3 3 3 3 3 </DataArray>
</Cells>
<PointData  Scalars="f_16"> 
<DataArray  type="Float64"  Name="f_16"  format="ascii">-3.5015819090579376e-03  -1.3507937459720259e-02  -2.3336484379530932e-02  -3.3022492280017246e-02  -4.2593462124003244e-02  -5.2071383150582934e-02  -6.1474288964446698e-02  -7.0817323614606867e-02  -8.0113467065071012e-02  -8.9374025742571278e-02  -9.8608962691098478e-02  -1.0782711965811446e-01  -1.1703636762513306e-01  -1.2624371105451149e-01  -1.3545536315361589e-01  -1.4467680382584455e-01  -1.5391282801842282e-01  -1.6316758941170420e-01  -1.7244464248173452e-01  -1.8174698466196484e-01  -1.9107709945567086e-01  -2.0043700078206367e-01  -2.0982827848607102e-01  -2.1925214473963520e-01  -2.2870948096465743e-01  -2.3820088488105259e-01  -2.4772671730380150e-01  -2.5728714836322270e-01  -2.6688220289066361e-01  -2.7651180478873644e-01  -2.8617582028500765e-01  -2.9587410004650805e-01  -3.0560652020678863e-01  -3.1537302242573906e-01  -3.2517365316400326e-01  -3.3500860240807734e-01  -3.4487824212893853e-01  -3.5478316479644029e-01  -3.6472422230397522e-01  -3.7470256568334898e-01  -3.8471968600873219e-01  -3.9477745690119359e-01  -4.0487817905180090e-01  -4.1502462718159905e-01  -4.2522009985076903e-01  -4.3546847251656284e-01  -4.4577425421963329e-01  -4.5614264825032808e-01  -4.6657961710935747e-01  -4.7709195202969823e-01  -4.8768734726714558e-01  -4.9837447929380946e-01  -5.0916309094011347e-01  -5.2006408042433405e-01  -5.3108959508213627e-01  -5.4225312945956039e-01  -5.5356962725917791e-01  -5.6505558642850751e-01  -5.7672916645042005e-01  -5.8861029663589715e-01  -6.0072078392964945e-01  -6.1308441841938610e-01  -6.2572707439212305e-01  -6.3867680440986185e-01  -6.5196392348875620e-01  -6.6562108006982357e-01  -6.7968331007809235e-01  -6.9418806999729910e-01  -7.0917524455951153e-01  -7.2468712438826643e-01  -7.4076834876901765e-01  -7.5746580868456437e-01  -7.7482850538099957e-01  -7.9290736005796469e-01  -8.1175497084091663e-01  -8.3142531402399955e-01  -8.5197338769382536e-01  -8.7345479726954112e-01  -8.9592528422012219e-01  -9.1944020122383951e-01  -9.4405393927310377e-01  -9.6981931463252358e-01  -9.9678692603808605e-01  -1.0250044949702546e+00  -1.0545162041196912e+00  -1.0853620511642545e+00  -1.1175772365725538e+00  -1.1511916052505098e+00  -1.1862291624025560e+00  -1.2227076839958964e+00  -1.2606384417748515e+00  -1.3000260620368342e+00  -1.3408685366068920e+00  -1.3831574039821581e+00  -1.4268781189004727e+00  -1.4720106301450444e+00  -1.5185301898360954e+00  -1.5664084234627766e+00  -1.6156146992260321e+00  -1.6661178487112254e+00  -1.7178883093540473e+00  </DataArray> 
</PointData> 
</Piece>
</UnstructuredGrid>
</VTKFile>