<?xml version="1.0"?>
<VTKFile type="UnstructuredGrid"  version="0.1"  >
<UnstructuredGrid>
<Piece  NumberOfPoints="101" NumberOfCells="100">
<Points>
<DataArray  type="Float64"  NumberOfComponents="3"  format="ascii">0 0 0  0.01 0 0  0.02 0 0  0.03 0 0  0.04 0 0  0.05 0 0  0.06 0 0  0.07000000000000001 0 0  0.08 0 0  0.09 0 0  0.1 0 0  0.11 0 0  0.12 0 0  0.13 0 0  0.14 0 0  0.15 0 0  0.16 0 0  0.17 0 0  0.18 0 0  0.19 0 0  0.2 0 0  0.21 0 0  0.22 0 0  0.23 0 0  0.24 0 0  0.25 0 0  0.26 0 0  0.27 0 0  0.28 0 0  0.29 0 0  0.3 0 0  0.31 0 0  0.32 0 0  0.33 0 0  0.34 0 0  0.35 0 0  0.36 0 0  0.37 0 0  0.38 0 0  0.39 0 0  0.4 0 0  0.41 0 0  0.42 0 0  0.43 0 0  0.44 0 0  0.45 0 0  0.46 0 0  0.47 0 0  0.48 0 0  0.49 0 0  0.5 0 0  0.51 0 0  0.52 0 0  0.53 0 0  0.54 0 0  0.55 0 0  0.5600000000000001 0 0  0.57 0 0  0.58 0 0  0.59 0 0  0.6 0 0  0.61 0 0  0.62 0 0  0.63 0 0  0.64 0 0  0.65 0 0  0.66 0 0  0.67 0 0  0.68 0 0  0.6899999999999999 0 0  0.7 0 0  0.71 0 0  0.72 0 0  0.73 0 0  0.74 0 0  0.75 0 0  0.76 0 0  0.77 0 0  0.78 0 0  0.79 0 0  0.8 0 0  0.8100000000000001 0 0  0.82 0 0  0.83 0 0  0.84 0 0  0.85 0 0  0.86 0 0  0.87 0 0  0.88 0 0  0.89 0 0  0.9 0 0  0.91 0 0  0.92 0 0  0.93 0 0  0.9399999999999999 0 0  0.95 0 0  0.96 0 0  0.97 0 0  0.98 0 0  0.99 0 0  1 0 0  </DataArray>
</Points>
<Cells>
<DataArray  type="UInt32"  Name="connectivity"  format="ascii">0 1  1 2  2 3  3 4  4 5  5 6  6 7  7 8  8 9  9 10  10 11  11 12  12 13  13 14  14 15  15 16  16 17  17 18  18 19  19 20  20 21  21 22  22 23  23 24  24 25  25 26  26 27  27 28  28 29  29 30  30 31  31 32  32 33  33 34  34 35  35 36  36 37  37 38  38 39  39 40  40 41  41 42  42 43  43 44  44 45  45 46  46 47  47 48  48 49  49 50  50 51  51 52  52 53  53 54  54 55  55 56  56 57  57 58  58 59  59 60  60 61  61 62  62 63  63 64  64 65  65 66  66 67  67 68  68 69  69 70  70 71  71 72  72 73  73 74  74 75  75 76  76 77  77 78  78 79  79 80  80 81  81 82  82 83  83 84  84 85  85 86  86 87  87 88  88 89  89 90  90 91  91 92  92 93  93 94  94 95  95 96  96 97  97 98  98 99  99 100  </DataArray>
<DataArray  type="UInt32"  Name="offsets"  format="ascii">2 4 6 8 10 12 14 16 18 20 22 24 26 28 30 32 34 36 38 40 42 44 46 48 50 52 54 56 58 60 62 64 66 68 70 72 74 76 78 80 82 84 86 88 90 92 94 96 98 100 102 104 106 108 110 112 114 116 118 120 122 124 126 128 130 132 134 136 138 140 142 144 146 148 150 152 154 156 158 160 162 164 166 168 170 172 174 176 178 180 182 184 186 188 190 192 194 196 198 200 </DataArray>
<DataArray  type="UInt8"  Name="types"  format="ascii">3 3 3 3 3 3 3 3 3 3 3 3 3 3 3 3 3 3 3 3 3 3 3 3 3 3 3 3 3 3 3 3 3 3 3 3 3 3 3 3 3 3 3 3 3 3 3 3 3 3 3 3 3 3 3 3 3 3 3 3 3 3 3 3 3 3 3 3 3 3 3 3 3 3 3 3 3 3 3 3 3 3 3 3 3 3 3 3 3 3 3 3 3 3 3 3 3 3 3 3 </DataArray>
</Cells>
<PointData  Scalars="f_16"> 
<DataArray  type="Float64"  Name="f_16"  format="ascii">7.7324613165942573e-03  -3.7645486503137702e-03  -1.8488857730580024e-02  -3.6386391501094580e-02  -5.7384535741772782e-02  -8.1394097293687628e-02  -1.0831156238980359e-01  -1.3802152075413318e-01  -1.7039914079286167e-01  -2.0531259964565218e-01  -2.4262539104996761e-01  -2.8219845303690505e-01  -3.2389207556270044e-01  -3.6756756455326289e-01  -4.1308865297246361e-01  -4.6032266112316683e-01  -5.0914141737837226e-01  -5.5942195702711039e-01  -6.1104702114888276e-01  -6.6390537972728758e-01  -7.1789200394067920e-01  -7.7290811208787780e-01  -8.2886111225641279e-01  -8.8566446291351153e-01  -9.4323747033993621e-01  -1.0015050394264153e+00  -1.0603973919563570e+00  -1.1198497642089178e+00  -1.1798020936001130e+00  -1.2401987021750716e+00  -1.3009879830887709e+00  -1.3621220947669914e+00  -1.4235566662144374e+00  -1.4852505159166740e+00  -1.5471653859466608e+00  -1.6092656922134254e+00  -1.6715182912580051e+00  -1.7338922635892380e+00  -1.7963587132400614e+00  -1.8588905829962132e+00  -1.9214624845883708e+00  -1.9840505430324888e+00  -2.0466322542401030e+00  -2.1091863549910967e+00  -2.1716927043579677e+00  -2.2341321756864345e+00  -2.2964865582669742e+00  -2.3587384678713348e+00  -2.4208712653737869e+00  -2.4828689827262189e+00  -2.5447162556070486e+00  -2.6063982621147725e+00  -2.6679006669265419e+00  -2.7292095703896866e+00  -2.7903114620588507e+00  -2.8511931782330313e+00  -2.9118418630850194e+00  -2.9722449330103240e+00  -3.0323900438536429e+00  -3.0922650606981743e+00  -3.1518580299267565e+00  -3.2111571532838519e+00  -3.2701507636840348e+00  -3.3288273025258852e+00  -3.3871752982802659e+00  -3.4451833461289825e+00  -3.5028400884340432e+00  -3.5601341958193538e+00  -3.6170543486460520e+00  -3.6735892186601862e+00  -3.7297274505875464e+00  -3.7854576434458265e+00  -3.8407683313397531e+00  -3.8956479635013017e+00  -3.9500848833360260e+00  -4.0040673062393539e+00  -4.0575832959554790e+00  -4.1106207392685761e+00  -4.1631673188443692e+00  -4.2152104840830011e+00  -4.2667374199056525e+00  -4.3177350134818928e+00  -4.3681898190173127e+00  -4.4180880208667954e+00  -4.4674153954230507e+00  -4.5161572724575132e+00  -4.5642984968647298e+00  -4.6118233920827558e+00  -4.6587157268273875e+00  -4.7049586871765881e+00  -4.7505348564519387e+00  -4.7954262057285488e+00  -4.8396140981018476e+00  -4.8830793099525494e+00  -4.9258020722331359e+00  -4.9677621340331566e+00  -5.0089388490490991e+00  -5.0493112826311171e+00  -5.0888583321532472e+00  -5.1275588456393084e+00  -5.1653917115909787e+00  </DataArray> 
</PointData> 
</Piece>
</UnstructuredGrid>
</VTKFile>