<?xml version="1.0"?>
<VTKFile type="UnstructuredGrid"  version="0.1"  >
<UnstructuredGrid>
<Piece  NumberOfPoints="101" NumberOfCells="100">
<Points>
<DataArray  type="Float64"  NumberOfComponents="3"  format="ascii">0 0 0  0.01 0 0  0.02 0 0  0.03 0 0  0.04 0 0  0.05 0 0  0.06 0 0  0.07000000000000001 0 0  0.08 0 0  0.09 0 0  0.1 0 0  0.11 0 0  0.12 0 0  0.13 0 0  0.14 0 0  0.15 0 0  0.16 0 0  0.17 0 0  0.18 0 0  0.19 0 0  0.2 0 0  0.21 0 0  0.22 0 0  0.23 0 0  0.24 0 0  0.25 0 0  0.26 0 0  0.27 0 0  0.28 0 0  0.29 0 0  0.3 0 0  0.31 0 0  0.32 0 0  0.33 0 0  0.34 0 0  0.35 0 0  0.36 0 0  0.37 0 0  0.38 0 0  0.39 0 0  0.4 0 0  0.41 0 0  0.42 0 0  0.43 0 0  0.44 0 0  0.45 0 0  0.46 0 0  0.47 0 0  0.48 0 0  0.49 0 0  0.5 0 0  0.51 0 0  0.52 0 0  0.53 0 0  0.54 0 0  0.55 0 0  0.5600000000000001 0 0  0.57 0 0  0.58 0 0  0.59 0 0  0.6 0 0  0.61 0 0  0.62 0 0  0.63 0 0  0.64 0 0  0.65 0 0  0.66 0 0  0.67 0 0  0.68 0 0  0.6899999999999999 0 0  0.7 0 0  0.71 0 0  0.72 0 0  0.73 0 0  0.74 0 0  0.75 0 0  0.76 0 0  0.77 0 0  0.78 0 0  0.79 0 0  0.8 0 0  0.8100000000000001 0 0  0.82 0 0  0.83 0 0  0.84 0 0  0.85 0 0  0.86 0 0  0.87 0 0  0.88 0 0  0.89 0 0  0.9 0 0  0.91 0 0  0.92 0 0  0.93 0 0  0.9399999999999999 0 0  0.95 0 0  0.96 0 0  0.97 0 0  0.98 0 0  0.99 0 0  1 0 0  </DataArray>
</Points>
<Cells>
<DataArray  type="UInt32"  Name="connectivity"  format="ascii">0 1  1 2  2 3  3 4  4 5  5 6  6 7  7 8  8 9  9 10  10 11  11 12  12 13  13 14  14 15  15 16  16 17  17 18  18 19  19 20  20 21  21 22  22 23  23 24  24 25  25 26  26 27  27 28  28 29  29 30  30 31  31 32  32 33  33 34  34 35  35 36  36 37  37 38  38 39  39 40  40 41  41 42  42 43  43 44  44 45  45 46  46 47  47 48  48 49  49 50  50 51  51 52  52 53  53 54  54 55  55 56  56 57  57 58  58 59  59 60  60 61  61 62  62 63  63 64  64 65  65 66  66 67  67 68  68 69  69 70  70 71  71 72  72 73  73 74  74 75  75 76  76 77  77 78  78 79  79 80  80 81  81 82  82 83  83 84  84 85  85 86  86 87  87 88  88 89  89 90  90 91  91 92  92 93  93 94  94 95  95 96  96 97  97 98  98 99  99 100  </DataArray>
<DataArray  type="UInt32"  Name="offsets"  format="ascii">2 4 6 8 10 12 14 16 18 20 22 24 26 28 30 32 34 36 38 40 42 44 46 48 50 52 54 56 58 60 62 64 66 68 70 72 74 76 78 80 82 84 86 88 90 92 94 96 98 100 102 104 106 108 110 112 114 116 118 120 122 124 126 128 130 132 134 136 138 140 142 144 146 148 150 152 154 156 158 160 162 164 166 168 170 172 174 176 178 180 182 184 186 188 190 192 194 196 198 200 </DataArray>
<DataArray  type="UInt8"  Name="types"  format="ascii">3 3 3 3 3 3 3 3 3 3 3 3 3 3 3 3 3 3 3 3 3 3 3 3 3 3 3 3 3 3 3 3 3 3 3 3 3 3 3 3 3 3 3 3 3 3 3 3 3 3 3 3 3 3 3 3 3 3 3 3 3 3 3 3 3 3 3 3 3 3 3 3 3 3 3 3 3 3 3 3 3 3 3 3 3 3 3 3 3 3 3 3 3 3 3 3 3 3 3 3 </DataArray>
</Cells>
<PointData  Scalars="f_16"> 
<DataArray  type="Float64"  Name="f_16"  format="ascii">-1.0130427067475692e-01  -1.1457471500410989e-01  -1.2796588020038369e-01  -1.4151898857483924e-01  -1.5526829077375548e-01  -1.6924207074426950e-01  -1.8346368981507100e-01  -1.9795259215676395e-01  -2.1272522729227467e-01  -2.2779586762248039e-01  -2.4317731343291113e-01  -2.5888148691954183e-01  -2.7491992210578420e-01  -2.9130416032581186e-01  -3.0804606207963509e-01  -3.2515804612864579e-01  -3.4265326611924929e-01  -3.6054573408673357e-01  -3.7885039909638790e-01  -3.9758318815082799e-01  -4.1676101541046012e-01  -4.3640176478390053e-01  -4.5652425007042363e-01  -4.7714815608587208e-01  -4.9829396357624878e-01  -5.1998286021311146e-01  -5.4223663956240653e-01  -5.6507758961248278e-01  -5.8852837222612919e-01  -6.1261189473406352e-01  -6.3735117480213344e-01  -6.6276919967085446e-01  -6.8888878087351801e-01  -7.1573240557814166e-01  -7.4332208575961423e-01  -7.7167920648250687e-01  -8.0082437465361811e-01  -8.3077726967828902e-01  -8.6155649751835883e-01  -8.9317944969550489e-01  -9.2566216880568697e-01  -9.5901922210358148e-01  -9.9326358467654829e-01  -1.0284065336534722e+00  -1.0644575547839183e+00  -1.1014242625780883e+00  -1.1393123350203052e+00  -1.1781254636619007e+00  -1.2178653196684506e+00  -1.2585315361475236e+00  -1.3001217068234998e+00  -1.3426314008631850e+00  -1.3860541933976955e+00  -1.4303817110400832e+00  -1.4756036914715400e+00  -1.5217080559681597e+00  -1.5686809935704114e+00  -1.6165070554627647e+00  -1.6651692580339816e+00  -1.7146491930306949e+00  -1.7649271431980156e+00  -1.8159822018195619e+00  -1.8677923946231303e+00  -1.9203348026037701e+00  -1.9735856844292821e+00  -2.0275205972296306e+00  -2.0821145147268130e+00  -2.1373419418307220e+00  -2.1931770250051379e+00  -2.2495936578922087e+00  -2.3065655818702551e+00  -2.3640664814056565e+00  -2.4220700742429631e+00  -2.4805501966567527e+00  -2.5394808841635461e+00  -2.5988364482621864e+00  -2.6585915499369781e+00  -2.7187212708203745e+00  -2.7792011830721766e+00  -2.8400074191910294e+00  -2.9011167431320835e+00  -2.9625066242619251e+00  -3.0241553158368166e+00  -3.0860419398395633e+00  -3.1481465801477015e+00  -3.2104503861210101e+00  -3.2729356887739640e+00  -3.3355861317157336e+00  -3.3983868189641364e+00  -3.4613244815252742e+00  -3.5243876642158170e+00  -3.5875669335075355e+00  -3.6508551060848609e+00  -3.7142474961845062e+00  -3.7777421774501345e+00  -3.8413402517557436e+00  -3.9050461129441687e+00  -3.9688676873442050e+00  -4.0328166248547452e+00  -4.0969084038290120e+00  -4.1611622993989341e+00  </DataArray> 
</PointData> 
</Piece>
</UnstructuredGrid>
</VTKFile>