<?xml version="1.0"?>
<VTKFile type="UnstructuredGrid"  version="0.1"  >
<UnstructuredGrid>
<Piece  NumberOfPoints="101" NumberOfCells="100">
<Points>
<DataArray  type="Float64"  NumberOfComponents="3"  format="ascii">0 0 0  0.01 0 0  0.02 0 0  0.03 0 0  0.04 0 0  0.05 0 0  0.06 0 0  0.07000000000000001 0 0  0.08 0 0  0.09 0 0  0.1 0 0  0.11 0 0  0.12 0 0  0.13 0 0  0.14 0 0  0.15 0 0  0.16 0 0  0.17 0 0  0.18 0 0  0.19 0 0  0.2 0 0  0.21 0 0  0.22 0 0  0.23 0 0  0.24 0 0  0.25 0 0  0.26 0 0  0.27 0 0  0.28 0 0  0.29 0 0  0.3 0 0  0.31 0 0  0.32 0 0  0.33 0 0  0.34 0 0  0.35 0 0  0.36 0 0  0.37 0 0  0.38 0 0  0.39 0 0  0.4 0 0  0.41 0 0  0.42 0 0  0.43 0 0  0.44 0 0  0.45 0 0  0.46 0 0  0.47 0 0  0.48 0 0  0.49 0 0  0.5 0 0  0.51 0 0  0.52 0 0  0.53 0 0  0.54 0 0  0.55 0 0  0.5600000000000001 0 0  0.57 0 0  0.58 0 0  0.59 0 0  0.6 0 0  0.61 0 0  0.62 0 0  0.63 0 0  0.64 0 0  0.65 0 0  0.66 0 0  0.67 0 0  0.68 0 0  0.6899999999999999 0 0  0.7 0 0  0.71 0 0  0.72 0 0  0.73 0 0  0.74 0 0  0.75 0 0  0.76 0 0  0.77 0 0  0.78 0 0  0.79 0 0  0.8 0 0  0.8100000000000001 0 0  0.82 0 0  0.83 0 0  0.84 0 0  0.85 0 0  0.86 0 0  0.87 0 0  0.88 0 0  0.89 0 0  0.9 0 0  0.91 0 0  0.92 0 0  0.93 0 0  0.9399999999999999 0 0  0.95 0 0  0.96 0 0  0.97 0 0  0.98 0 0  0.99 0 0  1 0 0  </DataArray>
</Points>
<Cells>
<DataArray  type="UInt32"  Name="connectivity"  format="ascii">0 1  1 2  2 3  3 4  4 5  5 6  6 7  7 8  8 9  9 10  10 11  11 12  12 13  13 14  14 15  15 16  16 17  17 18  18 19  19 20  20 21  21 22  22 23  23 24  24 25  25 26  26 27  27 28  28 29  29 30  30 31  31 32  32 33  33 34  34 35  35 36  36 37  37 38  38 39  39 40  40 41  41 42  42 43  43 44  44 45  45 46  46 47  47 48  48 49  49 50  50 51  51 52  52 53  53 54  54 55  55 56  56 57  57 58  58 59  59 60  60 61  61 62  62 63  63 64  64 65  65 66  66 67  67 68  68 69  69 70  70 71  71 72  72 73  73 74  74 75  75 76  76 77  77 78  78 79  79 80  80 81  81 82  82 83  83 84  84 85  85 86  86 87  87 88  88 89  89 90  90 91  91 92  92 93  93 94  94 95  95 96  96 97  97 98  98 99  99 100  </DataArray>
<DataArray  type="UInt32"  Name="offsets"  format="ascii">2 4 6 8 10 12 14 16 18 20 22 24 26 28 30 32 34 36 38 40 42 44 46 48 50 52 54 56 58 60 62 64 66 68 70 72 74 76 78 80 82 84 86 88 90 92 94 96 98 100 102 104 106 108 110 112 114 116 118 120 122 124 126 128 130 132 134 136 138 140 142 144 146 148 150 152 154 156 158 160 162 164 166 168 170 172 174 176 178 180 182 184 186 188 190 192 194 196 198 200 </DataArray>
<DataArray  type="UInt8"  Name="types"  format="ascii">3 3 3 3 3 3 3 3 3 3 3 3 3 3 3 3 3 3 3 3 3 3 3 3 3 3 3 3 3 3 3 3 3 3 3 3 3 3 3 3 3 3 3 3 3 3 3 3 3 3 3 3 3 3 3 3 3 3 3 3 3 3 3 3 3 3 3 3 3 3 3 3 3 3 3 3 3 3 3 3 3 3 3 3 3 3 3 3 3 3 3 3 3 3 3 3 3 3 3 3 </DataArray>
</Cells>
<PointData  Scalars="f_16"> 
<DataArray  type="Float64"  Name="f_16"  format="ascii">-2.2070757065149740e-01  -2.3498088746447426e-01  -2.5207988715271212e-01  -2.7195500044384208e-01  -2.9454287383378264e-01  -3.1976747367721459e-01  -3.4754141437889935e-01  -3.7776744987548594e-01  -4.1034006966840186e-01  -4.4514714363137120e-01  -4.8207156417485558e-01  -5.2099284018309244e-01  -5.6178860421625654e-01  -6.0433600236875207e-01  -6.4851294439159013e-01  -6.9419919972689170e-01  -7.4127733254148553e-01  -7.8963347536765893e-01  -8.3915794636605490e-01  -8.8974571943715308e-01  -9.4129675943978219e-01  -9.9371623671747111e-01  -1.0469146361246053e+00  -1.1008077759484967e+00  -1.1553167517115313e+00  -1.2103678189731126e+00  -1.2658922280810951e+00  -1.3218260224718397e+00  -1.3781098106882548e+00  -1.4346885208542830e+00  -1.4915111449692202e+00  -1.5485304791046346e+00  -1.6057028644241738e+00  -1.6629879329139738e+00  -1.7203483608116374e+00  -1.7777496319513237e+00  -1.8351598125936215e+00  -1.8925493387711487e+00  -1.9498908167425095e+00  -2.0071588367961359e+00  -2.0643298003697743e+00  -2.1213817602396317e+00  -2.1782942733752049e+00  -2.2350482659422508e+00  -2.2916259098591278e+00  -2.3480105102637232e+00  -2.4041864032233264e+00  -2.4601388630130256e+00  -2.5158540182951916e+00  -2.5713187765497905e+00  -2.6265207561298269e+00  -2.6814482253456586e+00  -2.7360900480144870e+00  -2.7904356349453887e+00  -2.8444749008646921e+00  -2.8981982263203152e+00  -2.9515964241362274e+00  -3.0046607100188156e+00  -3.0573826769452901e+00  -3.1097542729899699e+00  -3.1617677822671229e+00  -3.2134158086887830e+00  -3.2646912622524873e+00  -3.3155873475870221e+00  -3.3660975544939293e+00  -3.4162156502285810e+00  -3.4659356732669790e+00  -3.5152519283029684e+00  -3.5641589822151403e+00  -3.6126516607332979e+00  -3.6607250455208078e+00  -3.7083744713714593e+00  -3.7555955231976279e+00  -3.8023840324605698e+00  -3.8487360726638622e+00  -3.8946479534976510e+00  -3.9401162131850009e+00  -3.9851376085432220e+00  -4.0297091022336611e+00  -4.0738278466348659e+00  -4.1174911637384639e+00  -4.1606965204374182e+00  -4.2034414985562965e+00  -4.2457237589673404e+00  -4.2875409991499236e+00  -4.3288909035909136e+00  -4.3697710864966126e+00  -4.4101790264009635e+00  -4.4501119924168941e+00  -4.4895669620941367e+00  -4.5285405311202362e+00  -4.5670288154288565e+00  -4.6050273466472342e+00  -4.6425309621928603e+00  -4.6795336916621650e+00  -4.7160286413457531e+00  -4.7520078786013933e+00  -4.7874623171767601e+00  -4.8223816030319782e+00  -4.8567539972188332e+00  -4.8905662471196951e+00  </DataArray> 
</PointData> 
</Piece>
</UnstructuredGrid>
</VTKFile>