<?xml version="1.0"?>
<VTKFile type="UnstructuredGrid"  version="0.1"  >
<UnstructuredGrid>
<Piece  NumberOfPoints="101" NumberOfCells="100">
<Points>
<DataArray  type="Float64"  NumberOfComponents="3"  format="ascii">0 0 0  0.01 0 0  0.02 0 0  0.03 0 0  0.04 0 0  0.05 0 0  0.06 0 0  0.07000000000000001 0 0  0.08 0 0  0.09 0 0  0.1 0 0  0.11 0 0  0.12 0 0  0.13 0 0  0.14 0 0  0.15 0 0  0.16 0 0  0.17 0 0  0.18 0 0  0.19 0 0  0.2 0 0  0.21 0 0  0.22 0 0  0.23 0 0  0.24 0 0  0.25 0 0  0.26 0 0  0.27 0 0  0.28 0 0  0.29 0 0  0.3 0 0  0.31 0 0  0.32 0 0  0.33 0 0  0.34 0 0  0.35 0 0  0.36 0 0  0.37 0 0  0.38 0 0  0.39 0 0  0.4 0 0  0.41 0 0  0.42 0 0  0.43 0 0  0.44 0 0  0.45 0 0  0.46 0 0  0.47 0 0  0.48 0 0  0.49 0 0  0.5 0 0  0.51 0 0  0.52 0 0  0.53 0 0  0.54 0 0  0.55 0 0  0.5600000000000001 0 0  0.57 0 0  0.58 0 0  0.59 0 0  0.6 0 0  0.61 0 0  0.62 0 0  0.63 0 0  0.64 0 0  0.65 0 0  0.66 0 0  0.67 0 0  0.68 0 0  0.6899999999999999 0 0  0.7 0 0  0.71 0 0  0.72 0 0  0.73 0 0  0.74 0 0  0.75 0 0  0.76 0 0  0.77 0 0  0.78 0 0  0.79 0 0  0.8 0 0  0.8100000000000001 0 0  0.82 0 0  0.83 0 0  0.84 0 0  0.85 0 0  0.86 0 0  0.87 0 0  0.88 0 0  0.89 0 0  0.9 0 0  0.91 0 0  0.92 0 0  0.93 0 0  0.9399999999999999 0 0  0.95 0 0  0.96 0 0  0.97 0 0  0.98 0 0  0.99 0 0  1 0 0  </DataArray>
</Points>
<Cells>
<DataArray  type="UInt32"  Name="connectivity"  format="ascii">0 1  1 2  2 3  3 4  4 5  5 6  6 7  7 8  8 9  9 10  10 11  11 12  12 13  13 14  14 15  15 16  16 17  17 18  18 19  19 20  20 21  21 22  22 23  23 24  24 25  25 26  26 27  27 28  28 29  29 30  30 31  31 32  32 33  33 34  34 35  35 36  36 37  37 38  38 39  39 40  40 41  41 42  42 43  43 44  44 45  45 46  46 47  47 48  48 49  49 50  50 51  51 52  52 53  53 54  54 55  55 56  56 57  57 58  58 59  59 60  60 61  61 62  62 63  63 64  64 65  65 66  66 67  67 68  68 69  69 70  70 71  71 72  72 73  73 74  74 75  75 76  76 77  77 78  78 79  79 80  80 81  81 82  82 83  83 84  84 85  85 86  86 87  87 88  88 89  89 90  90 91  91 92  92 93  93 94  94 95  95 96  96 97  97 98  98 99  99 100  </DataArray>
<DataArray  type="UInt32"  Name="offsets"  format="ascii">2 4 6 8 10 12 14 16 18 20 22 24 26 28 30 32 34 36 38 40 42 44 46 48 50 52 54 56 58 60 62 64 66 68 70 72 74 76 78 80 82 84 86 88 90 92 94 96 98 100 102 104 106 108 110 112 114 116 118 120 122 124 126 128 130 132 134 136 138 140 142 144 146 148 150 152 154 156 158 160 162 164 166 168 170 172 174 176 178 180 182 184 186 188 190 192 194 196 198 200 </DataArray>
<DataArray  type="UInt8"  Name="types"  format="ascii">3 3 3 3 3 3 3 3 3 3 3 3 3 3 3 3 3 3 3 3 3 3 3 3 3 3 3 3 3 3 3 3 3 3 3 3 3 3 3 3 3 3 3 3 3 3 3 3 3 3 3 3 3 3 3 3 3 3 3 3 3 3 3 3 3 3 3 3 3 3 3 3 3 3 3 3 3 3 3 3 3 3 3 3 3 3 3 3 3 3 3 3 3 3 3 3 3 3 3 3 </DataArray>
</Cells>
<PointData  Scalars="f_16"> 
<DataArray  type="Float64"  Name="f_16"  format="ascii">-4.8626334021486284e-01  -5.1155597919339924e-01  -5.3716236782210514e-01  -5.6313031788080437e-01  -5.8950160139243013e-01  -6.1631279831280295e-01  -6.4359613507177937e-01  -6.7138026570300680e-01  -6.9969096873232217e-01  -7.2855174719655991e-01  -7.5798432848470465e-01  -7.8800906669768778e-01  -8.1864525396319243e-01  -8.4991134933023416e-01  -8.8182513499295700e-01  -9.1440380999153847e-01  -9.4766403144607214e-01  -9.8162191296266832e-01  -1.0162929892270838e+00  -1.0516921550529221e+00  -1.0878335863373487e+00  -1.1247306495381957e+00  -1.1623958054504693e+00  -1.2008405122466062e+00  -1.2400751319659276e+00  -1.2801088439025350e+00  -1.3209495676523075e+00  -1.3626038979415012e+00  -1.4050770527732526e+00  -1.4483728358947703e+00  -1.4924936141073815e+00  -1.5374403095137821e+00  -1.5832124064214563e+00  -1.6298079722976542e+00  -1.6772236918986210e+00  -1.7254549134726613e+00  -1.7744957057613957e+00  -1.8243389243940553e+00  -1.8749762861832617e+00  -1.9263984497843398e+00  -1.9785951011703558e+00  -2.0315550423979212e+00  -2.0852662821902870e+00  -2.1397161269401255e+00  -2.1948912708304489e+00  -2.2507778838840817e+00  -2.3073616968760380e+00  -2.3646280821752494e+00  -2.4225621297189397e+00  -2.4811487174615108e+00  -2.5403725757774787e+00  -2.6002183454325967e+00  -2.6606706288671020e+00  -2.7217140346586830e+00  -2.7833332151493817e+00  -2.8455128973296042e+00  -2.9082379071734175e+00  -2.9714931877123569e+00  -3.0352638112201298e+00  -3.0995349859581864e+00  -3.1642920580025131e+00  -3.2295205087355217e+00  -3.2952059486440066e+00  -3.3613341081151584e+00  -3.4278908259678205e+00  -3.4948620364958063e+00  -3.5622337558342290e+00  -3.6299920684884355e+00  -3.6981231148882090e+00  -3.7666130808471401e+00  -3.8354481898182056e+00  -3.9046146988411703e+00  -3.9740988990750137e+00  -4.0438871217985204e+00  -4.1139657507438816e+00  -4.1843212416008564e+00  -4.2549401494919064e+00  -4.3258091651708579e+00  -4.3969151606378887e+00  -4.4682452447907899e+00  -4.5397868296449282e+00  -4.6115277075501799e+00  -4.6834561397099810e+00  -4.7555609561624097e+00  -4.8278316672118553e+00  -4.9002585860972641e+00  -4.9728329624421788e+00  -5.0455471257441102e+00  -5.1183946378141956e+00  -5.1913704526572415e+00  -5.2644710817665681e+00  -5.3376947621704458e+00  -5.4110416237715349e+00  -5.4845138515201892e+00  -5.5581158366941201e+00  -5.6318543099378546e+00  -5.7057384466365857e+00  -5.7797799325163819e+00  -5.8539929738874106e+00  -5.9283942324307715e+00  -6.0030026585483514e+00  </DataArray> 
</PointData> 
</Piece>
</UnstructuredGrid>
</VTKFile>