<?xml version="1.0"?>
<VTKFile type="UnstructuredGrid"  version="0.1"  >
<UnstructuredGrid>
<Piece  NumberOfPoints="101" NumberOfCells="100">
<Points>
<DataArray  type="Float64"  NumberOfComponents="3"  format="ascii">0 0 0  0.01 0 0  0.02 0 0  0.03 0 0  0.04 0 0  0.05 0 0  0.06 0 0  0.07000000000000001 0 0  0.08 0 0  0.09 0 0  0.1 0 0  0.11 0 0  0.12 0 0  0.13 0 0  0.14 0 0  0.15 0 0  0.16 0 0  0.17 0 0  0.18 0 0  0.19 0 0  0.2 0 0  0.21 0 0  0.22 0 0  0.23 0 0  0.24 0 0  0.25 0 0  0.26 0 0  0.27 0 0  0.28 0 0  0.29 0 0  0.3 0 0  0.31 0 0  0.32 0 0  0.33 0 0  0.34 0 0  0.35 0 0  0.36 0 0  0.37 0 0  0.38 0 0  0.39 0 0  0.4 0 0  0.41 0 0  0.42 0 0  0.43 0 0  0.44 0 0  0.45 0 0  0.46 0 0  0.47 0 0  0.48 0 0  0.49 0 0  0.5 0 0  0.51 0 0  0.52 0 0  0.53 0 0  0.54 0 0  0.55 0 0  0.5600000000000001 0 0  0.57 0 0  0.58 0 0  0.59 0 0  0.6 0 0  0.61 0 0  0.62 0 0  0.63 0 0  0.64 0 0  0.65 0 0  0.66 0 0  0.67 0 0  0.68 0 0  0.6899999999999999 0 0  0.7 0 0  0.71 0 0  0.72 0 0  0.73 0 0  0.74 0 0  0.75 0 0  0.76 0 0  0.77 0 0  0.78 0 0  0.79 0 0  0.8 0 0  0.8100000000000001 0 0  0.82 0 0  0.83 0 0  0.84 0 0  0.85 0 0  0.86 0 0  0.87 0 0  0.88 0 0  0.89 0 0  0.9 0 0  0.91 0 0  0.92 0 0  0.93 0 0  0.9399999999999999 0 0  0.95 0 0  0.96 0 0  0.97 0 0  0.98 0 0  0.99 0 0  1 0 0  </DataArray>
</Points>
<Cells>
<DataArray  type="UInt32"  Name="connectivity"  format="ascii">0 1  1 2  2 3  3 4  4 5  5 6  6 7  7 8  8 9  9 10  10 11  11 12  12 13  13 14  14 15  15 16  16 17  17 18  18 19  19 20  20 21  21 22  22 23  23 24  24 25  25 26  26 27  27 28  28 29  29 30  30 31  31 32  32 33  33 34  34 35  35 36  36 37  37 38  38 39  39 40  40 41  41 42  42 43  43 44  44 45  45 46  46 47  47 48  48 49  49 50  50 51  51 52  52 53  53 54  54 55  55 56  56 57  57 58  58 59  59 60  60 61  61 62  62 63  63 64  64 65  65 66  66 67  67 68  68 69  69 70  70 71  71 72  72 73  73 74  74 75  75 76  76 77  77 78  78 79  79 80  80 81  81 82  82 83  83 84  84 85  85 86  86 87  87 88  88 89  89 90  90 91  91 92  92 93  93 94  94 95  95 96  96 97  97 98  98 99  99 100  </DataArray>
<DataArray  type="UInt32"  Name="offsets"  format="ascii">2 4 6 8 10 12 14 16 18 20 22 24 26 28 30 32 34 36 38 40 42 44 46 48 50 52 54 56 58 60 62 64 66 68 70 72 74 76 78 80 82 84 86 88 90 92 94 96 98 100 102 104 106 108 110 112 114 116 118 120 122 124 126 128 130 132 134 136 138 140 142 144 146 148 150 152 154 156 158 160 162 164 166 168 170 172 174 176 178 180 182 184 186 188 190 192 194 196 198 200 </DataArray>
<DataArray  type="UInt8"  Name="types"  format="ascii">3 3 3 3 3 3 3 3 3 3 3 3 3 3 3 3 3 3 3 3 3 3 3 3 3 3 3 3 3 3 3 3 3 3 3 3 3 3 3 3 3 3 3 3 3 3 3 3 3 3 3 3 3 3 3 3 3 3 3 3 3 3 3 3 3 3 3 3 3 3 3 3 3 3 3 3 3 3 3 3 3 3 3 3 3 3 3 3 3 3 3 3 3 3 3 3 3 3 3 3 </DataArray>
</Cells>
<PointData  Scalars="f_16"> 
<DataArray  type="Float64"  Name="f_16"  format="ascii">-4.3476969432958874e-02  -5.4736019464252203e-02  -6.5786145139601709e-02  -7.6644733264296799e-02  -8.7328460354853074e-02  -9.7853335261136959e-02  -1.0823470293074436e-01  -1.1848722827440272e-01  -1.2862487264390732e-01  -1.3866087077407532e-01  -1.4860771276539211e-01  -1.5847713345324674e-01  -1.6828011004580171e-01  -1.7802686799797637e-01  -1.8772689455751010e-01  -1.9738895914674651e-01  -2.0702113964053245e-01  -2.1663085360247425e-01  -2.2622489360451076e-01  -2.3580946584871249e-01  -2.4539023141630295e-01  -2.5497234957546050e-01  -2.6456052267992414e-01  -2.7415904228160620e-01  -2.8377183616125662e-01  -2.9340251605194356e-01  -3.0305442589161496e-01  -3.1273069049445135e-01  -3.2243426457733410e-01  -3.3216798211862442e-01  -3.4193460606249410e-01  -3.5173687841395729e-01  -3.6157757079800074e-01  -3.7145953558105532e-01  -3.8138575767458421e-01  -3.9135940715870132e-01  -4.0138389287826221e-01  -4.1146291717446554e-01  -4.2160053192123598e-01  -4.3180119603701622e-01  -4.4206983463848837e-01  -4.5241189999251463e-01  -4.6283343440550256e-01  -4.7334113516467330e-01  -4.8394242161249956e-01  -4.9464550439297184e-01  -5.0545945685541716e-01  -5.1639428853736302e-01  -5.2746102057144528e-01  -5.3867176277166817e-01  -5.5003979205059084e-01  -5.6157963170051317e-01  -5.7330713093797725e-01  -5.8523954396168720e-01  -5.9739560760953314e-01  -6.0979561652155378e-01  -6.2246149452391242e-01  -6.3541686074666182e-01  -6.4868708877869330e-01  -6.6229935695149900e-01  -6.7628268763536037e-01  -6.9066797323502216e-01  -7.0548798639624755e-01  -7.2077737179102996e-01  -7.3657261675051666e-01  -7.5291199797521180e-01  -7.6983550158724701e-01  -7.8738471391547915e-01  -8.0560268063670071e-01  -8.2453373224988291e-01  -8.4422327434712630e-01  -8.6471754177285398e-01  -8.8606331653414072e-01  -9.0830761023500495e-01  -9.3149731284235726e-01  -9.5567881072740613e-01  -9.8089757812934608e-01  -1.0071977474130860e+00  -1.0346216646849857e+00  -1.0632094384277750e+00  -1.0929984897513467e+00  -1.1240231135630174e+00  -1.1563140603771418e+00  -1.1898981485580289e+00  -1.2247979164863936e+00  -1.2610313234435040e+00  -1.2986115069289503e+00  -1.3375466027047758e+00  -1.3778396321546795e+00  -1.4194884596510533e+00  -1.4624858206440721e+00  -1.5068194192494977e+00  -1.5524720923456796e+00  -1.5994220357246822e+00  -1.6476430867977410e+00  -1.6971050578352957e+00  -1.7477741138080798e+00  -1.7996131896417760e+00  -1.8525824431242308e+00  -1.9066397417934426e+00  -1.9617411848223694e+00  </DataArray> 
</PointData> 
</Piece>
</UnstructuredGrid>
</VTKFile>