<?xml version="1.0"?>
<VTKFile type="UnstructuredGrid"  version="0.1"  >
<UnstructuredGrid>
<Piece  NumberOfPoints="101" NumberOfCells="100">
<Points>
<DataArray  type="Float64"  NumberOfComponents="3"  format="ascii">0 0 0  0.01 0 0  0.02 0 0  0.03 0 0  0.04 0 0  0.05 0 0  0.06 0 0  0.07000000000000001 0 0  0.08 0 0  0.09 0 0  0.1 0 0  0.11 0 0  0.12 0 0  0.13 0 0  0.14 0 0  0.15 0 0  0.16 0 0  0.17 0 0  0.18 0 0  0.19 0 0  0.2 0 0  0.21 0 0  0.22 0 0  0.23 0 0  0.24 0 0  0.25 0 0  0.26 0 0  0.27 0 0  0.28 0 0  0.29 0 0  0.3 0 0  0.31 0 0  0.32 0 0  0.33 0 0  0.34 0 0  0.35 0 0  0.36 0 0  0.37 0 0  0.38 0 0  0.39 0 0  0.4 0 0  0.41 0 0  0.42 0 0  0.43 0 0  0.44 0 0  0.45 0 0  0.46 0 0  0.47 0 0  0.48 0 0  0.49 0 0  0.5 0 0  0.51 0 0  0.52 0 0  0.53 0 0  0.54 0 0  0.55 0 0  0.5600000000000001 0 0  0.57 0 0  0.58 0 0  0.59 0 0  0.6 0 0  0.61 0 0  0.62 0 0  0.63 0 0  0.64 0 0  0.65 0 0  0.66 0 0  0.67 0 0  0.68 0 0  0.6899999999999999 0 0  0.7 0 0  0.71 0 0  0.72 0 0  0.73 0 0  0.74 0 0  0.75 0 0  0.76 0 0  0.77 0 0  0.78 0 0  0.79 0 0  0.8 0 0  0.8100000000000001 0 0  0.82 0 0  0.83 0 0  0.84 0 0  0.85 0 0  0.86 0 0  0.87 0 0  0.88 0 0  0.89 0 0  0.9 0 0  0.91 0 0  0.92 0 0  0.93 0 0  0.9399999999999999 0 0  0.95 0 0  0.96 0 0  0.97 0 0  0.98 0 0  0.99 0 0  1 0 0  </DataArray>
</Points>
<Cells>
<DataArray  type="UInt32"  Name="connectivity"  format="ascii">0 1  1 2  2 3  3 4  4 5  5 6  6 7  7 8  8 9  9 10  10 11  11 12  12 13  13 14  14 15  15 16  16 17  17 18  18 19  19 20  20 21  21 22  22 23  23 24  24 25  25 26  26 27  27 28  28 29  29 30  30 31  31 32  32 33  33 34  34 35  35 36  36 37  37 38  38 39  39 40  40 41  41 42  42 43  43 44  44 45  45 46  46 47  47 48  48 49  49 50  50 51  51 52  52 53  53 54  54 55  55 56  56 57  57 58  58 59  59 60  60 61  61 62  62 63  63 64  64 65  65 66  66 67  67 68  68 69  69 70  70 71  71 72  72 73  73 74  74 75  75 76  76 77  77 78  78 79  79 80  80 81  81 82  82 83  83 84  84 85  85 86  86 87  87 88  88 89  89 90  90 91  91 92  92 93  93 94  94 95  95 96  96 97  97 98  98 99  99 100  </DataArray>
<DataArray  type="UInt32"  Name="offsets"  format="ascii">2 4 6 8 10 12 14 16 18 20 22 24 26 28 30 32 34 36 38 40 42 44 46 48 50 52 54 56 58 60 62 64 66 68 70 72 74 76 78 80 82 84 86 88 90 92 94 96 98 100 102 104 106 108 110 112 114 116 118 120 122 124 126 128 130 132 134 136 138 140 142 144 146 148 150 152 154 156 158 160 162 164 166 168 170 172 174 176 178 180 182 184 186 188 190 192 194 196 198 200 </DataArray>
<DataArray  type="UInt8"  Name="types"  format="ascii">3 3 3 3 3 3 3 3 3 3 3 3 3 3 3 3 3 3 3 3 3 3 3 3 3 3 3 3 3 3 3 3 3 3 3 3 3 3 3 3 3 3 3 3 3 3 3 3 3 3 3 3 3 3 3 3 3 3 3 3 3 3 3 3 3 3 3 3 3 3 3 3 3 3 3 3 3 3 3 3 3 3 3 3 3 3 3 3 3 3 3 3 3 3 3 3 3 3 3 3 </DataArray>
</Cells>
<PointData  Scalars="f_16"> 
<DataArray  type="Float64"  Name="f_16"  format="ascii">1.2611501358543412e-01  1.1987836709511107e-01  1.1328440602020504e-01  1.0632608774874132e-01  9.9013099278384947e-02  9.1365608468503334e-02  8.3409790224269170e-02  7.5174682939031914e-02  6.6690034666902917e-02  5.7984878385558769e-02  4.9086637616118971e-02  4.0020611817522665e-02  3.0809728388650547e-02  2.1474477066661984e-02  1.2032964778958054e-02  2.5010460022280002e-03  -7.1075034589945822e-03  -1.6780791726566349e-02  -2.6508610445054703e-02  -3.6282238796991044e-02  -4.6094258233147299e-02  -5.5938381526025142e-02  -6.5809297881545478e-02  -7.5702534571690031e-02  -8.5614334716762344e-02  -9.5541550327048946e-02  -1.0548154941795353e-01  -1.1543213587191239e-01  -1.2539148068449130e-01  -1.3535806326466029e-01  -1.4533062153430273e-01  -1.5530810967117070e-01  -1.6528966245005977e-01  -1.7527456525038534e-01  -1.8526222890905605e-01  -1.9525216870214937e-01  -2.0524398683550860e-01  -2.1523735791215362e-01  -2.2523201692319403e-01  -2.3522774937908078e-01  -2.4522438326015411e-01  -2.5522178252034250e-01  -2.6521984192642789e-01  -2.7521848305845603e-01  -2.8521765133558585e-01  -2.9521731396688061e-01  -3.0521745875918982e-01  -3.1521809374528953e-01  -3.2521924762578674e-01  -3.3522097104892168e-01  -3.4522333878434058e-01  -3.5522645288124755e-01  -3.6523044693926288e-01  -3.7523549166313647e-01  -3.8524180192167257e-01  -3.9524964558850406e-01  -4.0525935450965217e-01  -4.1527133802236132e-01  -4.2528609954409669e-01  -4.3530425686282775e-01  -4.4532656689325723e-01  -4.5535395582245630e-01  -4.6538755575698149e-01  -4.7542874920711520e-01  -4.8547922300814972e-01  -4.9554103358997825e-01  -5.0561668587153308e-01  -5.1570922848302325e-01  -5.2582236851372610e-01  -5.3596060955306934e-01  -5.4612941744347976e-01  -5.5633541889819882e-01  -5.6658663895514216e-01  -5.7689278413166190e-01  -5.8726557909766297e-01  -5.9771916566433581e-01  -6.0827057384025862e-01  -6.1894027555372166e-01  -6.2975283225687595e-01  -6.4073764783517362e-01  -6.5192983779202840e-01  -6.6337122421473216e-01  -6.7511146308210901e-01  -6.8720930542553782e-01  -6.9973398590447100e-01  -7.1276672051198564e-01  -7.2640227819742875e-01  -7.4075056783668425e-01  -7.5593815079065774e-01  -7.7210954899281226e-01  -7.8942816826455708e-01  -8.0807659645415042e-01  -8.2825596765052956e-01  -8.5018401101957009e-01  -8.7409133254294757e-01  -9.0021542007711564e-01  -9.2879182916927094e-01  -9.6004201167846714e-01  -9.9415729977883383e-01  -1.0312786508754472e+00  -1.0714718689078038e+00  </DataArray> 
</PointData> 
</Piece>
</UnstructuredGrid>
</VTKFile>