<?xml version="1.0"?>
<VTKFile type="UnstructuredGrid"  version="0.1"  >
<UnstructuredGrid>
<Piece  NumberOfPoints="101" NumberOfCells="100">
<Points>
<DataArray  type="Float64"  NumberOfComponents="3"  format="ascii">0 0 0  0.01 0 0  0.02 0 0  0.03 0 0  0.04 0 0  0.05 0 0  0.06 0 0  0.07000000000000001 0 0  0.08 0 0  0.09 0 0  0.1 0 0  0.11 0 0  0.12 0 0  0.13 0 0  0.14 0 0  0.15 0 0  0.16 0 0  0.17 0 0  0.18 0 0  0.19 0 0  0.2 0 0  0.21 0 0  0.22 0 0  0.23 0 0  0.24 0 0  0.25 0 0  0.26 0 0  0.27 0 0  0.28 0 0  0.29 0 0  0.3 0 0  0.31 0 0  0.32 0 0  0.33 0 0  0.34 0 0  0.35 0 0  0.36 0 0  0.37 0 0  0.38 0 0  0.39 0 0  0.4 0 0  0.41 0 0  0.42 0 0  0.43 0 0  0.44 0 0  0.45 0 0  0.46 0 0  0.47 0 0  0.48 0 0  0.49 0 0  0.5 0 0  0.51 0 0  0.52 0 0  0.53 0 0  0.54 0 0  0.55 0 0  0.5600000000000001 0 0  0.57 0 0  0.58 0 0  0.59 0 0  0.6 0 0  0.61 0 0  0.62 0 0  0.63 0 0  0.64 0 0  0.65 0 0  0.66 0 0  0.67 0 0  0.68 0 0  0.6899999999999999 0 0  0.7 0 0  0.71 0 0  0.72 0 0  0.73 0 0  0.74 0 0  0.75 0 0  0.76 0 0  0.77 0 0  0.78 0 0  0.79 0 0  0.8 0 0  0.8100000000000001 0 0  0.82 0 0  0.83 0 0  0.84 0 0  0.85 0 0  0.86 0 0  0.87 0 0  0.88 0 0  0.89 0 0  0.9 0 0  0.91 0 0  0.92 0 0  0.93 0 0  0.9399999999999999 0 0  0.95 0 0  0.96 0 0  0.97 0 0  0.98 0 0  0.99 0 0  1 0 0  </DataArray>
</Points>
<Cells>
<DataArray  type="UInt32"  Name="connectivity"  format="ascii">0 1  1 2  2 3  3 4  4 5  5 6  6 7  7 8  8 9  9 10  10 11  11 12  12 13  13 14  14 15  15 16  16 17  17 18  18 19  19 20  20 21  21 22  22 23  23 24  24 25  25 26  26 27  27 28  28 29  29 30  30 31  31 32  32 33  33 34  34 35  35 36  36 37  37 38  38 39  39 40  40 41  41 42  42 43  43 44  44 45  45 46  46 47  47 48  48 49  49 50  50 51  51 52  52 53  53 54  54 55  55 56  56 57  57 58  58 59  59 60  60 61  61 62  62 63  63 64  64 65  65 66  66 67  67 68  68 69  69 70  70 71  71 72  72 73  73 74  74 75  75 76  76 77  77 78  78 79  79 80  80 81  81 82  82 83  83 84  84 85  85 86  86 87  87 88  88 89  89 90  90 91  91 92  92 93  93 94  94 95  95 96  96 97  97 98  98 99  99 100  </DataArray>
<DataArray  type="UInt32"  Name="offsets"  format="ascii">2 4 6 8 10 12 14 16 18 20 22 24 26 28 30 32 34 36 38 40 42 44 46 48 50 52 54 56 58 60 62 64 66 68 70 72 74 76 78 80 82 84 86 88 90 92 94 96 98 100 102 104 106 108 110 112 114 116 118 120 122 124 126 128 130 132 134 136 138 140 142 144 146 148 150 152 154 156 158 160 162 164 166 168 170 172 174 176 178 180 182 184 186 188 190 192 194 196 198 200 </DataArray>
<DataArray  type="UInt8"  Name="types"  format="ascii">3 3 3 3 3 3 3 3 3 3 3 3 3 3 3 3 3 3 3 3 3 3 3 3 3 3 3 3 3 3 3 3 3 3 3 3 3 3 3 3 3 3 3 3 3 3 3 3 3 3 3 3 3 3 3 3 3 3 3 3 3 3 3 3 3 3 3 3 3 3 3 3 3 3 3 3 3 3 3 3 3 3 3 3 3 3 3 3 3 3 3 3 3 3 3 3 3 3 3 3 </DataArray>
</Cells>
<PointData  Scalars="f_16"> 
<DataArray  type="Float64"  Name="f_16"  format="ascii">-1.4001641495992029e-01  -1.5448760830760280e-01  -1.6883290458567615e-01  -1.8307585292359438e-01  -1.9723898038533635e-01  -2.1134338035028480e-01  -2.2540867169222820e-01  -2.3945315678691365e-01  -2.5349407112535000e-01  -2.6754786028840016e-01  -2.8163044806604670e-01  -2.9575747735580121e-01  -3.0994451647590099e-01  -3.2420722998601131e-01  -3.3856151660804595e-01  -3.5302361846456465e-01  -3.6761020633107749e-01  -3.8233844541503831e-01  -3.9722604564246616e-01  -4.1229129975140355e-01  -4.2755311178024041e-01  -4.4303101786710386e-01  -4.5874520067941721e-01  -4.7471649828481954e-01  -4.9096640785782442e-01  -5.0751708428584097e-01  -5.2439133348508593e-01  -5.4161260005196032e-01  -5.5920494874936921e-01  -5.7719303925184295e-01  -5.9560209354110505e-01  -6.1445785534909769e-01  -6.3378654108389354e-01  -6.5361478174182464e-01  -6.7396955540382519e-01  -6.9487811003317812e-01  -7.1636787643362609e-01  -7.3846637138920190e-01  -7.6120109118795920e-01  -7.8459939592841965e-01  -8.0868838521677955e-01  -8.3349476608076789e-01  -8.5904471414780315e-01  -8.8536372935520691e-01  -9.1247648767246181e-01  -9.4040669051299064e-01  -9.6917691368846448e-01  -9.9880845790486927e-01  -1.0293212029093499e+00  -1.0607334674636280e+00  -1.0930618773379803e+00  -1.1263212434850463e+00  -1.1605244524625313e+00  -1.1956823710275051e+00  -1.2318037666239177e+00  -1.2688952452329068e+00  -1.3069612077582684e+00  -1.3460038257850504e+00  -1.3860230371871880e+00  -1.4270165616813757e+00  -1.4689799360407654e+00  -1.5119065683056374e+00  -1.5557878099707656e+00  -1.6006130448018381e+00  -1.6463697926457475e+00  -1.6930438263599987e+00  -1.7406192998010668e+00  -1.7890788846844010e+00  -1.8384039140619255e+00  -1.8885745301563102e+00  -1.9395698343431709e+00  -1.9913680371793179e+00  -2.0439466065326592e+00  -2.0972824120719120e+00  -2.1513518646159375e+00  -2.2061310491171353e+00  -2.2615958503546794e+00  -2.3177220707354778e+00  -2.3744855399376905e+00  -2.4318622164776058e+00  -2.4898282816296344e+00  -2.5483602264742955e+00  -2.6074349331822635e+00  -2.6670297519532835e+00  -2.7271225753030381e+00  -2.7876919116096683e+00  -2.8487169599680446e+00  -2.9101776884177535e+00  -2.9720549174603224e+00  -3.0343304103952278e+00  -3.0969869712925622e+00  -3.1600085502630808e+00  -3.2233803539261250e+00  -3.2870889564068841e+00  -3.3511224025505122e+00  -3.4154702899801457e+00  -3.4801238097140272e+00  -3.5450757157442223e+00  -3.6103201815759474e+00  -3.6758524853707795e+00  -3.7416684439548211e+00  </DataArray> 
</PointData> 
</Piece>
</UnstructuredGrid>
</VTKFile>