<?xml version="1.0"?>
<VTKFile type="UnstructuredGrid"  version="0.1"  >
<UnstructuredGrid>
<Piece  NumberOfPoints="101" NumberOfCells="100">
<Points>
<DataArray  type="Float64"  NumberOfComponents="3"  format="ascii">0 0 0  0.01 0 0  0.02 0 0  0.03 0 0  0.04 0 0  0.05 0 0  0.06 0 0  0.07000000000000001 0 0  0.08 0 0  0.09 0 0  0.1 0 0  0.11 0 0  0.12 0 0  0.13 0 0  0.14 0 0  0.15 0 0  0.16 0 0  0.17 0 0  0.18 0 0  0.19 0 0  0.2 0 0  0.21 0 0  0.22 0 0  0.23 0 0  0.24 0 0  0.25 0 0  0.26 0 0  0.27 0 0  0.28 0 0  0.29 0 0  0.3 0 0  0.31 0 0  0.32 0 0  0.33 0 0  0.34 0 0  0.35 0 0  0.36 0 0  0.37 0 0  0.38 0 0  0.39 0 0  0.4 0 0  0.41 0 0  0.42 0 0  0.43 0 0  0.44 0 0  0.45 0 0  0.46 0 0  0.47 0 0  0.48 0 0  0.49 0 0  0.5 0 0  0.51 0 0  0.52 0 0  0.53 0 0  0.54 0 0  0.55 0 0  0.5600000000000001 0 0  0.57 0 0  0.58 0 0  0.59 0 0  0.6 0 0  0.61 0 0  0.62 0 0  0.63 0 0  0.64 0 0  0.65 0 0  0.66 0 0  0.67 0 0  0.68 0 0  0.6899999999999999 0 0  0.7 0 0  0.71 0 0  0.72 0 0  0.73 0 0  0.74 0 0  0.75 0 0  0.76 0 0  0.77 0 0  0.78 0 0  0.79 0 0  0.8 0 0  0.8100000000000001 0 0  0.82 0 0  0.83 0 0  0.84 0 0  0.85 0 0  0.86 0 0  0.87 0 0  0.88 0 0  0.89 0 0  0.9 0 0  0.91 0 0  0.92 0 0  0.93 0 0  0.9399999999999999 0 0  0.95 0 0  0.96 0 0  0.97 0 0  0.98 0 0  0.99 0 0  1 0 0  </DataArray>
</Points>
<Cells>
<DataArray  type="UInt32"  Name="connectivity"  format="ascii">0 1  1 2  2 3  3 4  4 5  5 6  6 7  7 8  8 9  9 10  10 11  11 12  12 13  13 14  14 15  15 16  16 17  17 18  18 19  19 20  20 21  21 22  22 23  23 24  24 25  25 26  26 27  27 28  28 29  29 30  30 31  31 32  32 33  33 34  34 35  35 36  36 37  37 38  38 39  39 40  40 41  41 42  42 43  43 44  44 45  45 46  46 47  47 48  48 49  49 50  50 51  51 52  52 53  53 54  54 55  55 56  56 57  57 58  58 59  59 60  60 61  61 62  62 63  63 64  64 65  65 66  66 67  67 68  68 69  69 70  70 71  71 72  72 73  73 74  74 75  75 76  76 77  77 78  78 79  79 80  80 81  81 82  82 83  83 84  84 85  85 86  86 87  87 88  88 89  89 90  90 91  91 92  92 93  93 94  94 95  95 96  96 97  97 98  98 99  99 100  </DataArray>
<DataArray  type="UInt32"  Name="offsets"  format="ascii">2 4 6 8 10 12 14 16 18 20 22 24 26 28 30 32 34 36 38 40 42 44 46 48 50 52 54 56 58 60 62 64 66 68 70 72 74 76 78 80 82 84 86 88 90 92 94 96 98 100 102 104 106 108 110 112 114 116 118 120 122 124 126 128 130 132 134 136 138 140 142 144 146 148 150 152 154 156 158 160 162 164 166 168 170 172 174 176 178 180 182 184 186 188 190 192 194 196 198 200 </DataArray>
<DataArray  type="UInt8"  Name="types"  format="ascii">3 3 3 3 3 3 3 3 3 3 3 3 3 3 3 3 3 3 3 3 3 3 3 3 3 3 3 3 3 3 3 3 3 3 3 3 3 3 3 3 3 3 3 3 3 3 3 3 3 3 3 3 3 3 3 3 3 3 3 3 3 3 3 3 3 3 3 3 3 3 3 3 3 3 3 3 3 3 3 3 3 3 3 3 3 3 3 3 3 3 3 3 3 3 3 3 3 3 3 3 </DataArray>
</Cells>
<PointData  Scalars="f_16"> 
<DataArray  type="Float64"  Name="f_16"  format="ascii">-4.2255299390028811e-01  -4.4541095253966057e-01  -4.6933590095514816e-01  -4.9432020310274111e-01  -5.2035586556510638e-01  -5.4743393903146875e-01  -5.7554438888969683e-01  -6.0467624068531001e-01  -6.3481786535188733e-01  -6.6595731339363629e-01  -6.9808263988080244e-01  -7.3118218581009653e-01  -7.6524479816172064e-01  -8.0025998250531827e-01  -8.3621798958262339e-01  -8.7310984196194574e-01  -9.1092730943026923e-01  -9.4966284288938341e-01  -9.8930947662956248e-01  -1.0298607083233444e+00  -1.0713103651723783e+00  -1.1136524635364962e+00  -1.1568810682030730e+00  -1.2009901563001848e+00  -1.2459734897713279e+00  -1.2918244993422261e+00  -1.3385361820357018e+00  -1.3861010135324923e+00  -1.4345108760314875e+00  -1.4837570017254729e+00  -1.5338299315694000e+00  -1.5847194886679159e+00  -1.6364147653377563e+00  -1.6889041226993222e+00  -1.7421752015115874e+00  -1.7962149428773007e+00  -1.8510096174037460e+00  -1.9065448614012321e+00  -1.9628057187306525e+00  -2.0197766869670364e+00  -2.0774417666226759e+00  -2.1357845122662091e+00  -2.1947880844785570e+00  -2.2544353016987442e+00  -2.3147086911289172e+00  -2.3755905379849982e+00  -2.4370629324948729e+00  -2.4991078141573730e+00  -2.5617070128808925e+00  -2.6248422867187640e+00  -2.6884953560085836e+00  -2.7526479338038081e+00  -2.8172817525578870e+00  -2.8823785870839171e+00  -2.9479202738666106e+00  -3.0138887268486898e+00  -3.0802659498514520e+00  -3.1470340458199222e+00  -3.2141752231078442e+00  -3.2816717990377096e+00  -3.3495062009873484e+00  -3.4176609652684502e+00  -3.4861187340749789e+00  -3.5548622507920551e+00  -3.6238743539696983e+00  -3.6931379702820117e+00  -3.7626361068121255e+00  -3.8323518430274839e+00  -3.9022683228398369e+00  -3.9723687471803713e+00  -4.0426363675633823e+00  -4.1130544811621856e+00  -4.1836064279786536e+00  -4.2542755907526022e+00  -4.3250453983284984e+00  -4.3958993332732907e+00  -4.4668209446185383e+00  -4.5377938666793707e+00  -4.6088018449780028e+00  -4.6798287703647850e+00  -4.7508587224775551e+00  -4.8218760237003186e+00  -4.8928653047621298e+00  -4.9638115830396954e+00  -5.0347003544714175e+00  -5.1055176997291811e+00  -5.1762504048929703e+00  -5.2468860962895301e+00  -5.3174133883361359e+00  -5.3878220421079570e+00  -5.4581031308407670e+00  -5.5282492065902238e+00  -5.5982544596736785e+00  -5.6681148591750601e+00  -5.7378282585242051e+00  -5.8073944447637018e+00  -5.8768151033470346e+00  -5.9460936618883187e+00  -6.0152349658731641e+00  -6.0842447265472410e+00  -6.1531286655436386e+00  </DataArray> 
</PointData> 
</Piece>
</UnstructuredGrid>
</VTKFile>