<?xml version="1.0"?>
<VTKFile type="UnstructuredGrid"  version="0.1"  >
<UnstructuredGrid>
<Piece  NumberOfPoints="101" NumberOfCells="100">
<Points>
<DataArray  type="Float64"  NumberOfComponents="3"  format="ascii">0 0 0  0.01 0 0  0.02 0 0  0.03 0 0  0.04 0 0  0.05 0 0  0.06 0 0  0.07000000000000001 0 0  0.08 0 0  0.09 0 0  0.1 0 0  0.11 0 0  0.12 0 0  0.13 0 0  0.14 0 0  0.15 0 0  0.16 0 0  0.17 0 0  0.18 0 0  0.19 0 0  0.2 0 0  0.21 0 0  0.22 0 0  0.23 0 0  0.24 0 0  0.25 0 0  0.26 0 0  0.27 0 0  0.28 0 0  0.29 0 0  0.3 0 0  0.31 0 0  0.32 0 0  0.33 0 0  0.34 0 0  0.35 0 0  0.36 0 0  0.37 0 0  0.38 0 0  0.39 0 0  0.4 0 0  0.41 0 0  0.42 0 0  0.43 0 0  0.44 0 0  0.45 0 0  0.46 0 0  0.47 0 0  0.48 0 0  0.49 0 0  0.5 0 0  0.51 0 0  0.52 0 0  0.53 0 0  0.54 0 0  0.55 0 0  0.5600000000000001 0 0  0.57 0 0  0.58 0 0  0.59 0 0  0.6 0 0  0.61 0 0  0.62 0 0  0.63 0 0  0.64 0 0  0.65 0 0  0.66 0 0  0.67 0 0  0.68 0 0  0.6899999999999999 0 0  0.7 0 0  0.71 0 0  0.72 0 0  0.73 0 0  0.74 0 0  0.75 0 0  0.76 0 0  0.77 0 0  0.78 0 0  0.79 0 0  0.8 0 0  0.8100000000000001 0 0  0.82 0 0  0.83 0 0  0.84 0 0  0.85 0 0  0.86 0 0  0.87 0 0  0.88 0 0  0.89 0 0  0.9 0 0  0.91 0 0  0.92 0 0  0.93 0 0  0.9399999999999999 0 0  0.95 0 0  0.96 0 0  0.97 0 0  0.98 0 0  0.99 0 0  1 0 0  </DataArray>
</Points>
<Cells>
<DataArray  type="UInt32"  Name="connectivity"  format="ascii">0 1  1 2  2 3  3 4  4 5  5 6  6 7  7 8  8 9  9 10  10 11  11 12  12 13  13 14  14 15  15 16  16 17  17 18  18 19  19 20  20 21  21 22  22 23  23 24  24 25  25 26  26 27  27 28  28 29  29 30  30 31  31 32  32 33  33 34  34 35  35 36  36 37  37 38  38 39  39 40  40 41  41 42  42 43  43 44  44 45  45 46  46 47  47 48  48 49  49 50  50 51  51 52  52 53  53 54  54 55  55 56  56 57  57 58  58 59  59 60  60 61  61 62  62 63  63 64  64 65  65 66  66 67  67 68  68 69  69 70  70 71  71 72  72 73  73 74  74 75  75 76  76 77  77 78  78 79  79 80  80 81  81 82  82 83  83 84  84 85  85 86  86 87  87 88  88 89  89 90  90 91  91 92  92 93  93 94  94 95  95 96  96 97  97 98  98 99  99 100  </DataArray>
<DataArray  type="UInt32"  Name="offsets"  format="ascii">2 4 6 8 10 12 14 16 18 20 22 24 26 28 30 32 34 36 38 40 42 44 46 48 50 52 54 56 58 60 62 64 66 68 70 72 74 76 78 80 82 84 86 88 90 92 94 96 98 100 102 104 106 108 110 112 114 116 118 120 122 124 126 128 130 132 134 136 138 140 142 144 146 148 150 152 154 156 158 160 162 164 166 168 170 172 174 176 178 180 182 184 186 188 190 192 194 196 198 200 </DataArray>
<DataArray  type="UInt8"  Name="types"  format="ascii">3 3 3 3 3 3 3 3 3 3 3 3 3 3 3 3 3 3 3 3 3 3 3 3 3 3 3 3 3 3 3 3 3 3 3 3 3 3 3 3 3 3 3 3 3 3 3 3 3 3 3 3 3 3 3 3 3 3 3 3 3 3 3 3 3 3 3 3 3 3 3 3 3 3 3 3 3 3 3 3 3 3 3 3 3 3 3 3 3 3 3 3 3 3 3 3 3 3 3 3 </DataArray>
</Cells>
<PointData  Scalars="f_16"> 
<DataArray  type="Float64"  Name="f_16"  format="ascii">-3.9958214831046884e-01  -4.2227439692149671e-01  -4.4606108589076710e-01  -4.7086224319771719e-01  -4.9661138017763495e-01  -5.2325439110178096e-01  -5.5074824597273786e-01  -5.7905961744417034e-01  -6.0816353287745151e-01  -6.3804210628226876e-01  -6.6868337938340550e-01  -7.0008028377462139e-01  -7.3222972494300920e-01  -7.6513178217367295e-01  -7.9878901465612950e-01  -8.3320586251479778e-01  -8.6838813124289793e-01  -9.0434254860446373e-01  -9.4107638411277783e-01  -9.7859712244283636e-01  -1.0169121834242751e+00  -1.0560286824855896e+00  -1.0959532265204639e+00  -1.1366917410930726e+00  -1.1782493256823998e+00  -1.2206301342903585e+00  -1.2638372792175920e+00  -1.3078727561617709e+00  -1.3527373890356469e+00  -1.3984307930562800e+00  -1.4449513547422101e+00  -1.4922962274899805e+00  -1.5404613414015356e+00  -1.5894414260136212e+00  -1.6392300445511978e+00  -1.6898196382985375e+00  -1.7412015796614382e+00  -1.7933662324871229e+00  -1.8463030182183982e+00  -1.9000004864872466e+00  -1.9544463888007473e+00  -2.0096277540382657e+00  -2.0655309645616713e+00  -2.1221418318376104e+00  -2.1794456705799319e+00  -2.2374273705381826e+00  -2.2960714651817238e+00  -2.3553621966553830e+00  -2.4152835765089042e+00  -2.4758194418261876e+00  -2.5369535064991777e+00  -2.5986694075032828e+00  -2.6609507461348505e+00  -2.7237811242651584e+00  -2.7871441757486553e+00  -2.8510235931951216e+00  -2.9154031503755400e+00  -2.9802667205795070e+00  -3.0455982912779129e+00  -3.1113819754682899e+00  -3.1776020200919244e+00  -3.2442428119115170e+00  -3.3112888812261860e+00  -3.3787249037770550e+00  -3.4465357011617428e+00  -3.5147062400299753e+00  -3.5832216302754394e+00  -3.6520671223710330e+00  -3.7212281039160744e+00  -3.7906900953749685e+00  -3.8604387448876305e+00  -3.9304598219229403e+00  -4.0007392094282732e+00  -4.0712628940013120e+00  -4.1420169534760527e+00  -4.2129875411744138e+00  -4.2841608659301036e+00  -4.3555231668447547e+00  -4.4270606815911240e+00  -4.4987596069384477e+00  -4.5706060500462877e+00  -4.6425859689621385e+00  -4.7146851006733526e+00  -4.7868888750162384e+00  -4.8591823127480263e+00  -4.9315499061573567e+00  -5.0039754807467176e+00  -5.0764420367913452e+00  -5.1489315699952876e+00  -5.2214248710658522e+00  -5.2939013048617332e+00  -5.3663385708993898e+00  -5.4387124485046749e+00  -5.5109965318716148e+00  -5.5831619628652849e+00  -5.6551771727460016e+00  -5.7270076483129335e+00  -5.7986157435490693e+00  -5.8699605650674958e+00  -5.9409979690007173e+00  -6.0116807190841168e+00  </DataArray> 
</PointData> 
</Piece>
</UnstructuredGrid>
</VTKFile>