<?xml version="1.0"?>
<VTKFile type="UnstructuredGrid"  version="0.1"  >
<UnstructuredGrid>
<Piece  NumberOfPoints="101" NumberOfCells="100">
<Points>
<DataArray  type="Float64"  NumberOfComponents="3"  format="ascii">0 0 0  0.01 0 0  0.02 0 0  0.03 0 0  0.04 0 0  0.05 0 0  0.06 0 0  0.07000000000000001 0 0  0.08 0 0  0.09 0 0  0.1 0 0  0.11 0 0  0.12 0 0  0.13 0 0  0.14 0 0  0.15 0 0  0.16 0 0  0.17 0 0  0.18 0 0  0.19 0 0  0.2 0 0  0.21 0 0  0.22 0 0  0.23 0 0  0.24 0 0  0.25 0 0  0.26 0 0  0.27 0 0  0.28 0 0  0.29 0 0  0.3 0 0  0.31 0 0  0.32 0 0  0.33 0 0  0.34 0 0  0.35 0 0  0.36 0 0  0.37 0 0  0.38 0 0  0.39 0 0  0.4 0 0  0.41 0 0  0.42 0 0  0.43 0 0  0.44 0 0  0.45 0 0  0.46 0 0  0.47 0 0  0.48 0 0  0.49 0 0  0.5 0 0  0.51 0 0  0.52 0 0  0.53 0 0  0.54 0 0  0.55 0 0  0.5600000000000001 0 0  0.57 0 0  0.58 0 0  0.59 0 0  0.6 0 0  0.61 0 0  0.62 0 0  0.63 0 0  0.64 0 0  0.65 0 0  0.66 0 0  0.67 0 0  0.68 0 0  0.6899999999999999 0 0  0.7 0 0  0.71 0 0  0.72 0 0  0.73 0 0  0.74 0 0  0.75 0 0  0.76 0 0  0.77 0 0  0.78 0 0  0.79 0 0  0.8 0 0  0.8100000000000001 0 0  0.82 0 0  0.83 0 0  0.84 0 0  0.85 0 0  0.86 0 0  0.87 0 0  0.88 0 0  0.89 0 0  0.9 0 0  0.91 0 0  0.92 0 0  0.93 0 0  0.9399999999999999 0 0  0.95 0 0  0.96 0 0  0.97 0 0  0.98 0 0  0.99 0 0  1 0 0  </DataArray>
</Points>
<Cells>
<DataArray  type="UInt32"  Name="connectivity"  format="ascii">0 1  1 2  2 3  3 4  4 5  5 6  6 7  7 8  8 9  9 10  10 11  11 12  12 13  13 14  14 15  15 16  16 17  17 18  18 19  19 20  20 21  21 22  22 23  23 24  24 25  25 26  26 27  27 28  28 29  29 30  30 31  31 32  32 33  33 34  34 35  35 36  36 37  37 38  38 39  39 40  40 41  41 42  42 43  43 44  44 45  45 46  46 47  47 48  48 49  49 50  50 51  51 52  52 53  53 54  54 55  55 56  56 57  57 58  58 59  59 60  60 61  61 62  62 63  63 64  64 65  65 66  66 67  67 68  68 69  69 70  70 71  71 72  72 73  73 74  74 75  75 76  76 77  77 78  78 79  79 80  80 81  81 82  82 83  83 84  84 85  85 86  86 87  87 88  88 89  89 90  90 91  91 92  92 93  93 94  94 95  95 96  96 97  97 98  98 99  99 100  </DataArray>
<DataArray  type="UInt32"  Name="offsets"  format="ascii">2 4 6 8 10 12 14 16 18 20 22 24 26 28 30 32 34 36 38 40 42 44 46 48 50 52 54 56 58 60 62 64 66 68 70 72 74 76 78 80 82 84 86 88 90 92 94 96 98 100 102 104 106 108 110 112 114 116 118 120 122 124 126 128 130 132 134 136 138 140 142 144 146 148 150 152 154 156 158 160 162 164 166 168 170 172 174 176 178 180 182 184 186 188 190 192 194 196 198 200 </DataArray>
<DataArray  type="UInt8"  Name="types"  format="ascii">3 3 3 3 3 3 3 3 3 3 3 3 3 3 3 3 3 3 3 3 3 3 3 3 3 3 3 3 3 3 3 3 3 3 3 3 3 3 3 3 3 3 3 3 3 3 3 3 3 3 3 3 3 3 3 3 3 3 3 3 3 3 3 3 3 3 3 3 3 3 3 3 3 3 3 3 3 3 3 3 3 3 3 3 3 3 3 3 3 3 3 3 3 3 3 3 3 3 3 3 </DataArray>
</Cells>
<PointData  Scalars="f_16"> 
<DataArray  type="Float64"  Name="f_16"  format="ascii">-2.2475250349169146e-01  -2.4217530067303786e-01  -2.6004659096718247e-01  -2.7829903908527720e-01  -2.9688429705551644e-01  -3.1577009307210013e-01  -3.3493754284393623e-01  -3.5437875441399330e-01  -3.7409474778699175e-01  -3.9409368123202915e-01  -4.1438936005747218e-01  -4.3499999619321400e-01  -4.5594718475878415e-01  -4.7725506473444801e-01  -4.9894963344846749e-01  -5.2105818794167003e-01  -5.4360886982301304e-01  -5.6663029367446638e-01  -5.9015124223783955e-01  -6.1420041445044005e-01  -6.3880621487582923e-01  -6.6399657521600419e-01  -6.8979880042256481e-01  -7.1623943348293473e-01  -7.4334413427964319e-01  -7.7113756903940223e-01  -7.9964330783336091e-01  -8.2888372838504343e-01  -8.5887992510819566e-01  -8.8965162284924904e-01  -9.2121709526119133e-01  -9.5359308809747267e-01  -9.8679474799434319e-01  -1.0208355575144368e+00  -1.0557272773594075e+00  -1.0914798967304438e+00  -1.1281015928279683e+00  -1.1655987004414605e+00  -1.2039756924931568e+00  -1.2432351722719639e+00  -1.2833778779333040e+00  -1.3244026996542710e+00  -1.3663067096291102e+00  -1.4090852048754894e+00  -1.4527317626049441e+00  -1.4972383076985514e+00  -1.5425951916279761e+00  -1.5887912819784149e+00  -1.6358140615684587e+00  -1.6836497360262417e+00  -1.7322833485739839e+00  -1.7816989006954187e+00  -1.8318794773128015e+00  -1.8828073750811998e+00  -1.9344642324156411e+00  -1.9868311598986963e+00  -2.0398888697688129e+00  -2.0936178032594044e+00  -2.1479982546412733e+00  -2.2030104909123134e+00  -2.2586348661745670e+00  -2.3148519298358194e+00  -2.3716425278675692e+00  -2.4289878964403315e+00  -2.4868697473383077e+00  -2.5452703446263016e+00  -2.6041725721008460e+00  -2.6635599911035799e+00  -2.7234168883072836e+00  -2.7837283131031754e+00  -2.8444801042220540e+00  -2.9056589052116726e+00  -2.9672521683687103e+00  -3.0292481466861534e+00  -3.0916358733262750e+00  -3.1544051280660437e+00  -3.2175463900860870e+00  -3.2810507763864827e+00  -3.3449099650129637e+00  -3.4091161021657412e+00  -3.4736616921404742e+00  -3.5385394689175205e+00  -3.6037422480726788e+00  -3.6692627575322341e+00  -3.7350934455408473e+00  -3.8012262640584726e+00  -3.8676524256610967e+00  -3.9343621319035100e+00  -4.0013442710309031e+00  -4.0685860829295120e+00  -4.1360727893272644e+00  -4.2037871875534494e+00  -4.2717092067261584e+00  -4.3398154261752593e+00  -4.4080785573906240e+00  -4.4764668930376059e+00  -4.5449437299205915e+00  -4.6134667776412011e+00  -4.6819875717060224e+00  -4.7504509198528089e+00  -4.8187944245995862e+00  </DataArray> 
</PointData> 
</Piece>
</UnstructuredGrid>
</VTKFile>