<?xml version="1.0"?>
<VTKFile type="UnstructuredGrid"  version="0.1"  >
<UnstructuredGrid>
<Piece  NumberOfPoints="101" NumberOfCells="100">
<Points>
<DataArray  type="Float64"  NumberOfComponents="3"  format="ascii">0 0 0  0.01 0 0  0.02 0 0  0.03 0 0  0.04 0 0  0.05 0 0  0.06 0 0  0.07000000000000001 0 0  0.08 0 0  0.09 0 0  0.1 0 0  0.11 0 0  0.12 0 0  0.13 0 0  0.14 0 0  0.15 0 0  0.16 0 0  0.17 0 0  0.18 0 0  0.19 0 0  0.2 0 0  0.21 0 0  0.22 0 0  0.23 0 0  0.24 0 0  0.25 0 0  0.26 0 0  0.27 0 0  0.28 0 0  0.29 0 0  0.3 0 0  0.31 0 0  0.32 0 0  0.33 0 0  0.34 0 0  0.35 0 0  0.36 0 0  0.37 0 0  0.38 0 0  0.39 0 0  0.4 0 0  0.41 0 0  0.42 0 0  0.43 0 0  0.44 0 0  0.45 0 0  0.46 0 0  0.47 0 0  0.48 0 0  0.49 0 0  0.5 0 0  0.51 0 0  0.52 0 0  0.53 0 0  0.54 0 0  0.55 0 0  0.5600000000000001 0 0  0.57 0 0  0.58 0 0  0.59 0 0  0.6 0 0  0.61 0 0  0.62 0 0  0.63 0 0  0.64 0 0  0.65 0 0  0.66 0 0  0.67 0 0  0.68 0 0  0.6899999999999999 0 0  0.7 0 0  0.71 0 0  0.72 0 0  0.73 0 0  0.74 0 0  0.75 0 0  0.76 0 0  0.77 0 0  0.78 0 0  0.79 0 0  0.8 0 0  0.8100000000000001 0 0  0.82 0 0  0.83 0 0  0.84 0 0  0.85 0 0  0.86 0 0  0.87 0 0  0.88 0 0  0.89 0 0  0.9 0 0  0.91 0 0  0.92 0 0  0.93 0 0  0.9399999999999999 0 0  0.95 0 0  0.96 0 0  0.97 0 0  0.98 0 0  0.99 0 0  1 0 0  </DataArray>
</Points>
<Cells>
<DataArray  type="UInt32"  Name="connectivity"  format="ascii">0 1  1 2  2 3  3 4  4 5  5 6  6 7  7 8  8 9  9 10  10 11  11 12  12 13  13 14  14 15  15 16  16 17  17 18  18 19  19 20  20 21  21 22  22 23  23 24  24 25  25 26  26 27  27 28  28 29  29 30  30 31  31 32  32 33  33 34  34 35  35 36  36 37  37 38  38 39  39 40  40 41  41 42  42 43  43 44  44 45  45 46  46 47  47 48  48 49  49 50  50 51  51 52  52 53  53 54  54 55  55 56  56 57  57 58  58 59  59 60  60 61  61 62  62 63  63 64  64 65  65 66  66 67  67 68  68 69  69 70  70 71  71 72  72 73  73 74  74 75  75 76  76 77  77 78  78 79  79 80  80 81  81 82  82 83  83 84  84 85  85 86  86 87  87 88  88 89  89 90  90 91  91 92  92 93  93 94  94 95  95 96  96 97  97 98  98 99  99 100  </DataArray>
<DataArray  type="UInt32"  Name="offsets"  format="ascii">2 4 6 8 10 12 14 16 18 20 22 24 26 28 30 32 34 36 38 40 42 44 46 48 50 52 54 56 58 60 62 64 66 68 70 72 74 76 78 80 82 84 86 88 90 92 94 96 98 100 102 104 106 108 110 112 114 116 118 120 122 124 126 128 130 132 134 136 138 140 142 144 146 148 150 152 154 156 158 160 162 164 166 168 170 172 174 176 178 180 182 184 186 188 190 192 194 196 198 200 </DataArray>
<DataArray  type="UInt8"  Name="types"  format="ascii">3 3 3 3 3 3 3 3 3 3 3 3 3 3 3 3 3 3 3 3 3 3 3 3 3 3 3 3 3 3 3 3 3 3 3 3 3 3 3 3 3 3 3 3 3 3 3 3 3 3 3 3 3 3 3 3 3 3 3 3 3 3 3 3 3 3 3 3 3 3 3 3 3 3 3 3 3 3 3 3 3 3 3 3 3 3 3 3 3 3 3 3 3 3 3 3 3 3 3 3 </DataArray>
</Cells>
<PointData  Scalars="f_16"> 
<DataArray  type="Float64"  Name="f_16"  format="ascii">-1.3451538148056652e-01  -1.4889157494258479e-01  -1.6329003027357591e-01  -1.7770717624247581e-01  -1.9214284365656820e-01  -2.0659978475552263e-01  -2.2108324448583477e-01  -2.3560058859731486e-01  -2.5016098880533988e-01  -2.6477516204866713e-01  -2.7945515889927097e-01  -2.9421419516525033e-01  -3.0906652040350446e-01  -3.2402731719898753e-01  -3.3911262549270066e-01  -3.5433928681731780e-01  -3.6972490393284246e-01  -3.8528781198204287e-01  -4.0104705786809008e-01  -4.1702238507420286e-01  -4.3323422158917291e-01  -4.4970366897379077e-01  -4.6645249090706808e-01  -4.8350309979637046e-01  -5.0087854023212264e-01  -5.1860246822588196e-01  -5.3669912530018571e-01  -5.5519330660873301e-01  -5.7411032236423265e-01  -5.9347595194559855e-01  -6.1331639015193573e-01  -6.3365818517265993e-01  -6.5452816795478241e-01  -6.7595337277243728e-01  -6.9796094894171523e-01  -7.2057806377629152e-01  -7.4383179704573921e-01  -7.6774902737727968e-01  -7.9235631123055816e-01  -8.1767975527037118e-01  -8.4374488315976737e-01  -8.7057649799040293e-01  -8.9819854175264890e-01  -9.2663395341837884e-01  -9.5590452735808396e-01  -9.8603077393439698e-01  -1.0170317842001073e+00  -1.0489251006747462e+00  -1.0817265961753162e+00  -1.1154503626304710e+00  -1.1501086117118067e+00  -1.1857115889709910e+00  -1.2222675029793173e+00  -1.2597824707308376e+00  -1.2982604802973763e+00  -1.3377033714208699e+00  -1.3781108344044846e+00  -1.4194804273286361e+00  -1.4618076112817311e+00  -1.5050858029685528e+00  -1.5493064437517696e+00  -1.5944590839030450e+00  -1.6405314805975608e+00  -1.6875097079855557e+00  -1.7353782775210631e+00  -1.7841202666237701e+00  -1.8337174536951850e+00  -1.8841504575035664e+00  -1.9353988789900787e+00  -1.9874414436266987e+00  -2.0402561425685741e+00  -2.0938203709830527e+00  -2.1481110620972155e+00  -2.2031048156778095e+00  -2.2587780198346823e+00  -2.3151069652138743e+00  -2.3720679508129749e+00  -2.4296373808032441e+00  -2.4877918518753752e+00  -2.5465082307347053e+00  -2.6057637214542524e+00  -2.6655359224486364e+00  -2.7258028728585422e+00  -2.7865430881352089e+00  -2.8477355845906946e+00  -2.9093598926374682e+00  -2.9713960583876413e+00  -3.0338246332280163e+00  -3.0966266509450509e+00  -3.1597835919601542e+00  -3.2232773342702594e+00  -3.2870900907946150e+00  -3.3512043330328938e+00  -3.4156027012710330e+00  -3.4802679020598153e+00  -3.5451825943653712e+00  -3.6103292666729048e+00  -3.6756901084247815e+00  -3.7412468804788941e+00  -3.8069807907333995e+00  -3.8728723825721239e+00  </DataArray> 
</PointData> 
</Piece>
</UnstructuredGrid>
</VTKFile>