<?xml version="1.0"?>
<VTKFile type="UnstructuredGrid"  version="0.1"  >
<UnstructuredGrid>
<Piece  NumberOfPoints="101" NumberOfCells="100">
<Points>
<DataArray  type="Float64"  NumberOfComponents="3"  format="ascii">0 0 0  0.01 0 0  0.02 0 0  0.03 0 0  0.04 0 0  0.05 0 0  0.06 0 0  0.07000000000000001 0 0  0.08 0 0  0.09 0 0  0.1 0 0  0.11 0 0  0.12 0 0  0.13 0 0  0.14 0 0  0.15 0 0  0.16 0 0  0.17 0 0  0.18 0 0  0.19 0 0  0.2 0 0  0.21 0 0  0.22 0 0  0.23 0 0  0.24 0 0  0.25 0 0  0.26 0 0  0.27 0 0  0.28 0 0  0.29 0 0  0.3 0 0  0.31 0 0  0.32 0 0  0.33 0 0  0.34 0 0  0.35 0 0  0.36 0 0  0.37 0 0  0.38 0 0  0.39 0 0  0.4 0 0  0.41 0 0  0.42 0 0  0.43 0 0  0.44 0 0  0.45 0 0  0.46 0 0  0.47 0 0  0.48 0 0  0.49 0 0  0.5 0 0  0.51 0 0  0.52 0 0  0.53 0 0  0.54 0 0  0.55 0 0  0.5600000000000001 0 0  0.57 0 0  0.58 0 0  0.59 0 0  0.6 0 0  0.61 0 0  0.62 0 0  0.63 0 0  0.64 0 0  0.65 0 0  0.66 0 0  0.67 0 0  0.68 0 0  0.6899999999999999 0 0  0.7 0 0  0.71 0 0  0.72 0 0  0.73 0 0  0.74 0 0  0.75 0 0  0.76 0 0  0.77 0 0  0.78 0 0  0.79 0 0  0.8 0 0  0.8100000000000001 0 0  0.82 0 0  0.83 0 0  0.84 0 0  0.85 0 0  0.86 0 0  0.87 0 0  0.88 0 0  0.89 0 0  0.9 0 0  0.91 0 0  0.92 0 0  0.93 0 0  0.9399999999999999 0 0  0.95 0 0  0.96 0 0  0.97 0 0  0.98 0 0  0.99 0 0  1 0 0  </DataArray>
</Points>
<Cells>
<DataArray  type="UInt32"  Name="connectivity"  format="ascii">0 1  1 2  2 3  3 4  4 5  5 6  6 7  7 8  8 9  9 10  10 11  11 12  12 13  13 14  14 15  15 16  16 17  17 18  18 19  19 20  20 21  21 22  22 23  23 24  24 25  25 26  26 27  27 28  28 29  29 30  30 31  31 32  32 33  33 34  34 35  35 36  36 37  37 38  38 39  39 40  40 41  41 42  42 43  43 44  44 45  45 46  46 47  47 48  48 49  49 50  50 51  51 52  52 53  53 54  54 55  55 56  56 57  57 58  58 59  59 60  60 61  61 62  62 63  63 64  64 65  65 66  66 67  67 68  68 69  69 70  70 71  71 72  72 73  73 74  74 75  75 76  76 77  77 78  78 79  79 80  80 81  81 82  82 83  83 84  84 85  85 86  86 87  87 88  88 89  89 90  90 91  91 92  92 93  93 94  94 95  95 96  96 97  97 98  98 99  99 100  </DataArray>
<DataArray  type="UInt32"  Name="offsets"  format="ascii">2 4 6 8 10 12 14 16 18 20 22 24 26 28 30 32 34 36 38 40 42 44 46 48 50 52 54 56 58 60 62 64 66 68 70 72 74 76 78 80 82 84 86 88 90 92 94 96 98 100 102 104 106 108 110 112 114 116 118 120 122 124 126 128 130 132 134 136 138 140 142 144 146 148 150 152 154 156 158 160 162 164 166 168 170 172 174 176 178 180 182 184 186 188 190 192 194 196 198 200 </DataArray>
<DataArray  type="UInt8"  Name="types"  format="ascii">3 3 3 3 3 3 3 3 3 3 3 3 3 3 3 3 3 3 3 3 3 3 3 3 3 3 3 3 3 3 3 3 3 3 3 3 3 3 3 3 3 3 3 3 3 3 3 3 3 3 3 3 3 3 3 3 3 3 3 3 3 3 3 3 3 3 3 3 3 3 3 3 3 3 3 3 3 3 3 3 3 3 3 3 3 3 3 3 3 3 3 3 3 3 3 3 3 3 3 3 </DataArray>
</Cells>
<PointData  Scalars="f_16"> 
<DataArray  type="Float64"  Name="f_16"  format="ascii">1.5378706527407970e-01  1.4811046760865912e-01  1.4157945891693441e-01  1.3436074627467348e-01  1.2658927954261612e-01  1.1837402369063149e-01  1.0980278318871055e-01  1.0094619591667242e-01  9.1861015191631312e-02  8.2592791253488090e-02  7.3178052167032867e-02  6.3646071248319225e-02  5.4020295353994677e-02  4.4319496518857027e-02  3.4558698873285359e-02  2.4749923633363903e-02  1.4902787195404115e-02  5.0249808678708438e-03  -4.8773446111551513e-03  -1.4799271049578250e-02  -2.4736866165625815e-02  -3.4686986178278457e-02  -4.4647117844835840e-02  -5.4615252092689283e-02  -6.4589782945120314e-02  -7.4569426690539856e-02  -8.4553157248807395e-02  -9.4540154494412734e-02  -1.0452976294286602e-01  -1.1452145872486133e-01  -1.2451482318790436e-01  -1.3450952179749712e-01  -1.4450528727605841e-01  -1.5450190613070763e-01  -1.6449920789145053e-01  -1.7449705651767122e-01  -1.8449534353997527e-01  -1.9449398259180434e-01  -2.0449290505524195e-01  -2.1449205660155582e-01  -2.2449139445210600e-01  -2.3449088522154854e-01  -2.4449050323461080e-01  -2.5449022923158415e-01  -2.6449004939727455e-01  -2.7448995466445486e-01  -2.8448994025670449e-01  -2.9449000544758552e-01  -3.0449015352401720e-01  -3.1449039195199896e-01  -3.2449073275303947e-01  -3.3449119311026926e-01  -3.4449179623479298e-01  -3.5449257253595984e-01  -3.6449356115454873e-01  -3.7449481193615958e-01  -3.8449638794429086e-01  -3.9449836863978283e-01  -4.0450085388688850e-01  -4.1450396898788444e-01  -4.2450787099995513e-01  -4.3451275665266770e-01  -4.4451887226495790e-01  -4.5452652616120398e-01  -4.6453610421172081e-01  -4.7454808928015219e-01  -4.8456308555661731e-01  -4.9458184900085439e-01  -5.0460532542618231e-01  -5.1463469813801854e-01  -5.2467144751878336e-01  -5.3471742554764590e-01  -5.4477494898764889e-01  -5.5484691589997559e-01  -5.6493695129941246e-01  -5.7504958920015925e-01  -5.8519050008247731e-01  -5.9536677501721147e-01  -6.0558728041135523e-01  -6.1586310069466055e-01  -6.2620809038311687e-01  -6.3663956197377591e-01  -6.4717914220114026e-01  -6.5785383647161910e-01  -6.6869734992081231e-01  -6.7975172358091129e-01  -6.9106935555348425e-01  -7.0271548958706920e-01  -7.1477126641489086e-01  -7.2733744536314460e-01  -7.4053891289489227e-01  -7.5453009728865850e-01  -7.6950139890111979e-01  -7.8568671497313958e-01  -8.0337207469017891e-01  -8.2290528812245123e-01  -8.4470633195733802e-01  -8.6927792434038964e-01  -8.9721536367455212e-01  -9.2921422040282287e-01  -9.6607390896063383e-01  </DataArray> 
</PointData> 
</Piece>
</UnstructuredGrid>
</VTKFile>