<?xml version="1.0"?>
<VTKFile type="UnstructuredGrid"  version="0.1"  >
<UnstructuredGrid>
<Piece  NumberOfPoints="101" NumberOfCells="100">
<Points>
<DataArray  type="Float64"  NumberOfComponents="3"  format="ascii">0 0 0  0.01 0 0  0.02 0 0  0.03 0 0  0.04 0 0  0.05 0 0  0.06 0 0  0.07000000000000001 0 0  0.08 0 0  0.09 0 0  0.1 0 0  0.11 0 0  0.12 0 0  0.13 0 0  0.14 0 0  0.15 0 0  0.16 0 0  0.17 0 0  0.18 0 0  0.19 0 0  0.2 0 0  0.21 0 0  0.22 0 0  0.23 0 0  0.24 0 0  0.25 0 0  0.26 0 0  0.27 0 0  0.28 0 0  0.29 0 0  0.3 0 0  0.31 0 0  0.32 0 0  0.33 0 0  0.34 0 0  0.35 0 0  0.36 0 0  0.37 0 0  0.38 0 0  0.39 0 0  0.4 0 0  0.41 0 0  0.42 0 0  0.43 0 0  0.44 0 0  0.45 0 0  0.46 0 0  0.47 0 0  0.48 0 0  0.49 0 0  0.5 0 0  0.51 0 0  0.52 0 0  0.53 0 0  0.54 0 0  0.55 0 0  0.5600000000000001 0 0  0.57 0 0  0.58 0 0  0.59 0 0  0.6 0 0  0.61 0 0  0.62 0 0  0.63 0 0  0.64 0 0  0.65 0 0  0.66 0 0  0.67 0 0  0.68 0 0  0.6899999999999999 0 0  0.7 0 0  0.71 0 0  0.72 0 0  0.73 0 0  0.74 0 0  0.75 0 0  0.76 0 0  0.77 0 0  0.78 0 0  0.79 0 0  0.8 0 0  0.8100000000000001 0 0  0.82 0 0  0.83 0 0  0.84 0 0  0.85 0 0  0.86 0 0  0.87 0 0  0.88 0 0  0.89 0 0  0.9 0 0  0.91 0 0  0.92 0 0  0.93 0 0  0.9399999999999999 0 0  0.95 0 0  0.96 0 0  0.97 0 0  0.98 0 0  0.99 0 0  1 0 0  </DataArray>
</Points>
<Cells>
<DataArray  type="UInt32"  Name="connectivity"  format="ascii">0 1  1 2  2 3  3 4  4 5  5 6  6 7  7 8  8 9  9 10  10 11  11 12  12 13  13 14  14 15  15 16  16 17  17 18  18 19  19 20  20 21  21 22  22 23  23 24  24 25  25 26  26 27  27 28  28 29  29 30  30 31  31 32  32 33  33 34  34 35  35 36  36 37  37 38  38 39  39 40  40 41  41 42  42 43  43 44  44 45  45 46  46 47  47 48  48 49  49 50  50 51  51 52  52 53  53 54  54 55  55 56  56 57  57 58  58 59  59 60  60 61  61 62  62 63  63 64  64 65  65 66  66 67  67 68  68 69  69 70  70 71  71 72  72 73  73 74  74 75  75 76  76 77  77 78  78 79  79 80  80 81  81 82  82 83  83 84  84 85  85 86  86 87  87 88  88 89  89 90  90 91  91 92  92 93  93 94  94 95  95 96  96 97  97 98  98 99  99 100  </DataArray>
<DataArray  type="UInt32"  Name="offsets"  format="ascii">2 4 6 8 10 12 14 16 18 20 22 24 26 28 30 32 34 36 38 40 42 44 46 48 50 52 54 56 58 60 62 64 66 68 70 72 74 76 78 80 82 84 86 88 90 92 94 96 98 100 102 104 106 108 110 112 114 116 118 120 122 124 126 128 130 132 134 136 138 140 142 144 146 148 150 152 154 156 158 160 162 164 166 168 170 172 174 176 178 180 182 184 186 188 190 192 194 196 198 200 </DataArray>
<DataArray  type="UInt8"  Name="types"  format="ascii">3 3 3 3 3 3 3 3 3 3 3 3 3 3 3 3 3 3 3 3 3 3 3 3 3 3 3 3 3 3 3 3 3 3 3 3 3 3 3 3 3 3 3 3 3 3 3 3 3 3 3 3 3 3 3 3 3 3 3 3 3 3 3 3 3 3 3 3 3 3 3 3 3 3 3 3 3 3 3 3 3 3 3 3 3 3 3 3 3 3 3 3 3 3 3 3 3 3 3 3 </DataArray>
</Cells>
<PointData  Scalars="f_16"> 
<DataArray  type="Float64"  Name="f_16"  format="ascii">-4.4789444424055386e-02  -5.6260018303978962e-02  -6.7796299439634930e-02  -7.9397833847540900e-02  -9.1063071497003212e-02  -1.0278972490527440e-01  -1.1457508792109396e-01  -1.2641631781463808e-01  -1.3831068210498784e-01  -1.5025577122669634e-01  -1.6224967844561383e-01  -1.7429114896109507e-01  -1.8637970064872986e-01  -1.9851571929531617e-01  -2.1070053141731926e-01  -2.2293645783661248e-01  -2.3522685113397510e-01  -2.4757611994066284e-01  -2.5998974279138365e-01  -2.7247427397544716e-01  -2.8503734350953602e-01  -2.9768765303340611e-01  -3.1043496911214635e-01  -3.2329011512465422e-01  -3.3626496263358430e-01  -3.4937242287046383e-01  -3.6262643873223405e-01  -3.7604197747208146e-01  -3.8963502407706074e-01  -4.0342257515616536e-01  -4.1742263301340604e-01  -4.3165419944937417e-01  -4.4613726872010478e-01  -4.6089281898253115e-01  -4.7594280147053092e-01  -4.9131012657401596e-01  -5.0701864593569801e-01  -5.2309312963649846e-01  -5.3955923751195367e-01  -5.5644348362967788e-01  -5.7377319296363016e-01  -5.9157644932650144e-01  -6.0988203366907578e-01  -6.2871935192704465e-01  -6.4811835169350507e-01  -6.6810942712097110e-01  -6.8872331161147071e-01  -7.0999095803778278e-01  -7.3194340645281841e-01  -7.5461163948621346e-01  -7.7802642589474869e-01  -8.0221815302222610e-01  -8.2721664922936100e-01  -8.5305099766805481e-01  -8.7974934308857244e-01  -9.0733869367288900e-01  -9.3584472017198528e-01  -9.6529155487778839e-01  -9.9570159317025897e-01  -1.0270953005357779e+00  -1.0594910280445891e+00  -1.0929048392943650e+00  -1.1273503517682404e+00  -1.1628385954159273e+00  -1.1993778910462318e+00  -1.2369737508223424e+00  -1.2756288027851590e+00  -1.3153427409055480e+00  -1.3561123016974994e+00  -1.3979312679268163e+00  -1.4407904994417573e+00  -1.4846779906510794e+00  -1.5295789536990037e+00  -1.5754759259520756e+00  -1.6223489000340416e+00  -1.6701754743329615e+00  -1.7189310216678098e+00  -1.7685888736439501e+00  -1.8191205181485466e+00  -1.8704958074349201e+00  -1.9226831743124881e+00  -1.9756498540867067e+00  -2.0293621100695183e+00  -2.0837854606915647e+00  -2.1388849064780793e+00  -2.1946251553856948e+00  -2.2509708452220600e+00  -2.3078867620696197e+00  -2.3653380537957367e+00  -2.4232904378420552e+00  -2.4817104025379413e+00  -2.5405654011712961e+00  -2.5998240379761319e+00  -2.6594562450692854e+00  -2.7194334492098031e+00  -2.7797287271019919e+00  -2.8403169478793289e+00  -2.9011749014879746e+00  -2.9622814120797458e+00  -3.0236174364354849e+00  -3.0851661491713274e+00  </DataArray> 
</PointData> 
</Piece>
</UnstructuredGrid>
</VTKFile>