<?xml version="1.0"?>
<VTKFile type="UnstructuredGrid"  version="0.1"  >
<UnstructuredGrid>
<Piece  NumberOfPoints="101" NumberOfCells="100">
<Points>
<DataArray  type="Float64"  NumberOfComponents="3"  format="ascii">0 0 0  0.01 0 0  0.02 0 0  0.03 0 0  0.04 0 0  0.05 0 0  0.06 0 0  0.07000000000000001 0 0  0.08 0 0  0.09 0 0  0.1 0 0  0.11 0 0  0.12 0 0  0.13 0 0  0.14 0 0  0.15 0 0  0.16 0 0  0.17 0 0  0.18 0 0  0.19 0 0  0.2 0 0  0.21 0 0  0.22 0 0  0.23 0 0  0.24 0 0  0.25 0 0  0.26 0 0  0.27 0 0  0.28 0 0  0.29 0 0  0.3 0 0  0.31 0 0  0.32 0 0  0.33 0 0  0.34 0 0  0.35 0 0  0.36 0 0  0.37 0 0  0.38 0 0  0.39 0 0  0.4 0 0  0.41 0 0  0.42 0 0  0.43 0 0  0.44 0 0  0.45 0 0  0.46 0 0  0.47 0 0  0.48 0 0  0.49 0 0  0.5 0 0  0.51 0 0  0.52 0 0  0.53 0 0  0.54 0 0  0.55 0 0  0.5600000000000001 0 0  0.57 0 0  0.58 0 0  0.59 0 0  0.6 0 0  0.61 0 0  0.62 0 0  0.63 0 0  0.64 0 0  0.65 0 0  0.66 0 0  0.67 0 0  0.68 0 0  0.6899999999999999 0 0  0.7 0 0  0.71 0 0  0.72 0 0  0.73 0 0  0.74 0 0  0.75 0 0  0.76 0 0  0.77 0 0  0.78 0 0  0.79 0 0  0.8 0 0  0.8100000000000001 0 0  0.82 0 0  0.83 0 0  0.84 0 0  0.85 0 0  0.86 0 0  0.87 0 0  0.88 0 0  0.89 0 0  0.9 0 0  0.91 0 0  0.92 0 0  0.93 0 0  0.9399999999999999 0 0  0.95 0 0  0.96 0 0  0.97 0 0  0.98 0 0  0.99 0 0  1 0 0  </DataArray>
</Points>
<Cells>
<DataArray  type="UInt32"  Name="connectivity"  format="ascii">0 1  1 2  2 3  3 4  4 5  5 6  6 7  7 8  8 9  9 10  10 11  11 12  12 13  13 14  14 15  15 16  16 17  17 18  18 19  19 20  20 21  21 22  22 23  23 24  24 25  25 26  26 27  27 28  28 29  29 30  30 31  31 32  32 33  33 34  34 35  35 36  36 37  37 38  38 39  39 40  40 41  41 42  42 43  43 44  44 45  45 46  46 47  47 48  48 49  49 50  50 51  51 52  52 53  53 54  54 55  55 56  56 57  57 58  58 59  59 60  60 61  61 62  62 63  63 64  64 65  65 66  66 67  67 68  68 69  69 70  70 71  71 72  72 73  73 74  74 75  75 76  76 77  77 78  78 79  79 80  80 81  81 82  82 83  83 84  84 85  85 86  86 87  87 88  88 89  89 90  90 91  91 92  92 93  93 94  94 95  95 96  96 97  97 98  98 99  99 100  </DataArray>
<DataArray  type="UInt32"  Name="offsets"  format="ascii">2 4 6 8 10 12 14 16 18 20 22 24 26 28 30 32 34 36 38 40 42 44 46 48 50 52 54 56 58 60 62 64 66 68 70 72 74 76 78 80 82 84 86 88 90 92 94 96 98 100 102 104 106 108 110 112 114 116 118 120 122 124 126 128 130 132 134 136 138 140 142 144 146 148 150 152 154 156 158 160 162 164 166 168 170 172 174 176 178 180 182 184 186 188 190 192 194 196 198 200 </DataArray>
<DataArray  type="UInt8"  Name="types"  format="ascii">3 3 3 3 3 3 3 3 3 3 3 3 3 3 3 3 3 3 3 3 3 3 3 3 3 3 3 3 3 3 3 3 3 3 3 3 3 3 3 3 3 3 3 3 3 3 3 3 3 3 3 3 3 3 3 3 3 3 3 3 3 3 3 3 3 3 3 3 3 3 3 3 3 3 3 3 3 3 3 3 3 3 3 3 3 3 3 3 3 3 3 3 3 3 3 3 3 3 3 3 </DataArray>
</Cells>
<PointData  Scalars="f_16"> 
<DataArray  type="Float64"  Name="f_16"  format="ascii">-3.8059929379690299e-02  -4.9307187569810257e-02  -6.0609763413124962e-02  -7.1944216991611021e-02  -8.3288706276897564e-02  -9.4623755682829824e-02  -1.0593265813706863e-01  -1.1720161863864319e-01  -1.2841972144859012e-01  -1.3957878251774905e-01  -1.5067313259805798e-01  -1.6169936392733333e-01  -1.7265606374116002e-01  -1.8354355056653587e-01  -1.9436362380064073e-01  -2.0511933306976829e-01  -2.1581477096859664e-01  -2.2645489073415290e-01  -2.3704534900253393e-01  -2.4759237286562663e-01  -2.5810264986270132e-01  -2.6858323921051086e-01  -2.7904150242162756e-01  -2.8948505142884290e-01  -2.9992171238248871e-01  -3.1035950338741852e-01  -3.2080662457536774e-01  -3.3127145905103011e-01  -3.4176258339564047e-01  -3.5228878655281765e-01  -3.6285909605305389e-01  -3.7348281065251071e-01  -3.8416953856693870e-01  -3.9492924057167045e-01  -4.0577227731344567e-01  -4.1670946023935657e-01  -4.2775210559274085e-01  -4.3891209095579276e-01  -4.5020191383448460e-01  -4.6163475178356339e-01  -4.7322452355842309e-01  -4.8498595075705619e-01  -4.9693461937961242e-01  -5.0908704068594623e-01  -5.2146071067365007e-01  -5.3407416743131286e-01  -5.4694704554522267e-01  -5.6010012665381681e-01  -5.7355538515459858e-01  -5.8733602797513018e-01  -6.0146652722570848e-01  -6.1597264445959155e-01  -6.3088144518095612e-01  -6.4622130216550011e-01  -6.6202188609878032e-01  -6.7831414199859508e-01  -6.9513024987608329e-01  -7.1250356811220295e-01  -7.3046855808851230e-01  -7.4906068872022968e-01  -7.6831631970149838e-01  -7.8827256249279776e-01  -8.0896711836237634e-01  -8.3043809313936712e-01  -8.5272378874537014e-01  -8.7586247204027146e-01  -8.9989212203999647e-01  -9.2485015712809115e-01  -9.5077314447489070e-01  -9.7769649447917006e-01  -1.0056541436357644e+00  -1.0346782297841930e+00  -1.0647987641817418e+00  -1.0960433052434599e+00  -1.1284366390762883e+00  -1.1620004720835997e+00  -1.1967531409134893e+00  -1.2327093448599313e+00  -1.2698799054995946e+00  -1.3082715578674273e+00  -1.3478867768598226e+00  -1.3887236418339459e+00  -1.4307757415833358e+00  -1.4740321210585945e+00  -1.5184772704189544e+00  -1.5640911563004822e+00  -1.6108492946255946e+00  -1.6587228639117406e+00  -1.7076788579174136e+00  -1.7576802766407507e+00  -1.8086863552060131e+00  -1.8606528310797581e+00  -1.9135322513939610e+00  -1.9672743239616777e+00  -2.0218263179005258e+00  -2.0771335226868333e+00  -2.1331397780167851e+00  -2.1897880911327299e+00  -2.2470213633811214e+00  -2.3047832538161255e+00  -2.3630192147707918e+00  </DataArray> 
</PointData> 
</Piece>
</UnstructuredGrid>
</VTKFile>