<?xml version="1.0"?>
<VTKFile type="UnstructuredGrid"  version="0.1"  >
<UnstructuredGrid>
<Piece  NumberOfPoints="101" NumberOfCells="100">
<Points>
<DataArray  type="Float64"  NumberOfComponents="3"  format="ascii">0 0 0  0.01 0 0  0.02 0 0  0.03 0 0  0.04 0 0  0.05 0 0  0.06 0 0  0.07000000000000001 0 0  0.08 0 0  0.09 0 0  0.1 0 0  0.11 0 0  0.12 0 0  0.13 0 0  0.14 0 0  0.15 0 0  0.16 0 0  0.17 0 0  0.18 0 0  0.19 0 0  0.2 0 0  0.21 0 0  0.22 0 0  0.23 0 0  0.24 0 0  0.25 0 0  0.26 0 0  0.27 0 0  0.28 0 0  0.29 0 0  0.3 0 0  0.31 0 0  0.32 0 0  0.33 0 0  0.34 0 0  0.35 0 0  0.36 0 0  0.37 0 0  0.38 0 0  0.39 0 0  0.4 0 0  0.41 0 0  0.42 0 0  0.43 0 0  0.44 0 0  0.45 0 0  0.46 0 0  0.47 0 0  0.48 0 0  0.49 0 0  0.5 0 0  0.51 0 0  0.52 0 0  0.53 0 0  0.54 0 0  0.55 0 0  0.5600000000000001 0 0  0.57 0 0  0.58 0 0  0.59 0 0  0.6 0 0  0.61 0 0  0.62 0 0  0.63 0 0  0.64 0 0  0.65 0 0  0.66 0 0  0.67 0 0  0.68 0 0  0.6899999999999999 0 0  0.7 0 0  0.71 0 0  0.72 0 0  0.73 0 0  0.74 0 0  0.75 0 0  0.76 0 0  0.77 0 0  0.78 0 0  0.79 0 0  0.8 0 0  0.8100000000000001 0 0  0.82 0 0  0.83 0 0  0.84 0 0  0.85 0 0  0.86 0 0  0.87 0 0  0.88 0 0  0.89 0 0  0.9 0 0  0.91 0 0  0.92 0 0  0.93 0 0  0.9399999999999999 0 0  0.95 0 0  0.96 0 0  0.97 0 0  0.98 0 0  0.99 0 0  1 0 0  </DataArray>
</Points>
<Cells>
<DataArray  type="UInt32"  Name="connectivity"  format="ascii">0 1  1 2  2 3  3 4  4 5  5 6  6 7  7 8  8 9  9 10  10 11  11 12  12 13  13 14  14 15  15 16  16 17  17 18  18 19  19 20  20 21  21 22  22 23  23 24  24 25  25 26  26 27  27 28  28 29  29 30  30 31  31 32  32 33  33 34  34 35  35 36  36 37  37 38  38 39  39 40  40 41  41 42  42 43  43 44  44 45  45 46  46 47  47 48  48 49  49 50  50 51  51 52  52 53  53 54  54 55  55 56  56 57  57 58  58 59  59 60  60 61  61 62  62 63  63 64  64 65  65 66  66 67  67 68  68 69  69 70  70 71  71 72  72 73  73 74  74 75  75 76  76 77  77 78  78 79  79 80  80 81  81 82  82 83  83 84  84 85  85 86  86 87  87 88  88 89  89 90  90 91  91 92  92 93  93 94  94 95  95 96  96 97  97 98  98 99  99 100  </DataArray>
<DataArray  type="UInt32"  Name="offsets"  format="ascii">2 4 6 8 10 12 14 16 18 20 22 24 26 28 30 32 34 36 38 40 42 44 46 48 50 52 54 56 58 60 62 64 66 68 70 72 74 76 78 80 82 84 86 88 90 92 94 96 98 100 102 104 106 108 110 112 114 116 118 120 122 124 126 128 130 132 134 136 138 140 142 144 146 148 150 152 154 156 158 160 162 164 166 168 170 172 174 176 178 180 182 184 186 188 190 192 194 196 198 200 </DataArray>
<DataArray  type="UInt8"  Name="types"  format="ascii">3 3 3 3 3 3 3 3 3 3 3 3 3 3 3 3 3 3 3 3 3 3 3 3 3 3 3 3 3 3 3 3 3 3 3 3 3 3 3 3 3 3 3 3 3 3 3 3 3 3 3 3 3 3 3 3 3 3 3 3 3 3 3 3 3 3 3 3 3 3 3 3 3 3 3 3 3 3 3 3 3 3 3 3 3 3 3 3 3 3 3 3 3 3 3 3 3 3 3 3 </DataArray>
</Cells>
<PointData  Scalars="f_16"> 
<DataArray  type="Float64"  Name="f_16"  format="ascii">-4.0564082043988087e-01  -4.2810296841892415e-01  -4.5157298496255521e-01  -4.7607036144483439e-01  -5.0159998163375585e-01  -5.2815677378378634e-01  -5.5572927703988995e-01  -5.8430232885188071e-01  -6.1385904465324526e-01  -6.4438223249148696e-01  -6.7585536145702885e-01  -7.0826318245500319e-01  -7.4159208243340535e-01  -7.7583023822421815e-01  -8.1096762339733608e-01  -8.4699591074616198e-01  -8.8390830401007703e-01  -9.2169932498821550e-01  -9.6036457611018167e-01  -9.9990049360886102e-01  -1.0403041025065491e+00  -1.0815727815122931e+00  -1.1237040434879135e+00  -1.1666953352442941e+00  -1.2105438589690118e+00  -1.2552464164701782e+00  -1.3007992765749590e+00  -1.3471980653847313e+00  -1.3944376786147827e+00  -1.4425122148980452e+00  -1.4914149286812612e+00  -1.5411382011668566e+00  -1.5916735276386371e+00  -1.6430115194423389e+00  -1.6951419188641703e+00  -1.7480536251550962e+00  -1.8017347299805406e+00  -1.8561725606301589e+00  -1.9113537293968177e+00  -1.9672641876246069e+00  -2.0238892830295896e+00  -2.0812138190111495e+00  -2.1392221147933363e+00  -2.1978980653618443e+00  -2.2572252002905007e+00  -2.3171867406789377e+00  -2.3777656535481890e+00  -2.4389447031612601e+00  -2.5007064988494974e+00  -2.5630335390313559e+00  -2.6259082512068135e+00  -2.6893130277972812e+00  -2.7532302577769601e+00  -2.8176423541068480e+00  -2.8825317770370762e+00  -2.9478810533871886e+00  -3.0136727919478181e+00  -3.0798896951716812e+00  -3.1465145673376882e+00  -3.2135303193802662e+00  -3.2809199705778660e+00  -3.3486666472912163e+00  -3.4167535789346681e+00  -3.4851640913542967e+00  -3.5538815977758995e+00  -3.6228895874762999e+00  -3.6921716123242305e+00  -3.7617112713344087e+00  -3.8314921933823238e+00  -3.9014980182399031e+00  -3.9717123761160633e+00  -4.0421188659237117e+00  -4.1127010325490287e+00  -4.1834423434727990e+00  -4.2543261651907587e+00  -4.3253357400040979e+00  -4.3964541639067161e+00  -4.4676643664871802e+00  -4.5389490939960044e+00  -4.6102908970086549e+00  -4.6816721244484123e+00  -4.7530749261284644e+00  -4.8244812664380321e+00  -4.8958729523429616e+00  -4.9672316795083553e+00  -5.0385391010925789e+00  -5.1097769246233797e+00  -5.1809270433648500e+00  -5.2519717097380401e+00  -5.3228937596896682e+00  -5.3936768984363042e+00  -5.4643060597707471e+00  -5.5347678531285975e+00  -5.6050511148998439e+00  -5.6751475830512135e+00  -5.7450527170077343e+00  -5.8147666879151148e+00  -5.8842955678253652e+00  -5.9536527499237941e+00  -6.0228606354782430e+00  -6.0919526264613131e+00  </DataArray> 
</PointData> 
</Piece>
</UnstructuredGrid>
</VTKFile>