<?xml version="1.0"?>
<VTKFile type="UnstructuredGrid"  version="0.1"  >
<UnstructuredGrid>
<Piece  NumberOfPoints="101" NumberOfCells="100">
<Points>
<DataArray  type="Float64"  NumberOfComponents="3"  format="ascii">0 0 0  0.01 0 0  0.02 0 0  0.03 0 0  0.04 0 0  0.05 0 0  0.06 0 0  0.07000000000000001 0 0  0.08 0 0  0.09 0 0  0.1 0 0  0.11 0 0  0.12 0 0  0.13 0 0  0.14 0 0  0.15 0 0  0.16 0 0  0.17 0 0  0.18 0 0  0.19 0 0  0.2 0 0  0.21 0 0  0.22 0 0  0.23 0 0  0.24 0 0  0.25 0 0  0.26 0 0  0.27 0 0  0.28 0 0  0.29 0 0  0.3 0 0  0.31 0 0  0.32 0 0  0.33 0 0  0.34 0 0  0.35 0 0  0.36 0 0  0.37 0 0  0.38 0 0  0.39 0 0  0.4 0 0  0.41 0 0  0.42 0 0  0.43 0 0  0.44 0 0  0.45 0 0  0.46 0 0  0.47 0 0  0.48 0 0  0.49 0 0  0.5 0 0  0.51 0 0  0.52 0 0  0.53 0 0  0.54 0 0  0.55 0 0  0.5600000000000001 0 0  0.57 0 0  0.58 0 0  0.59 0 0  0.6 0 0  0.61 0 0  0.62 0 0  0.63 0 0  0.64 0 0  0.65 0 0  0.66 0 0  0.67 0 0  0.68 0 0  0.6899999999999999 0 0  0.7 0 0  0.71 0 0  0.72 0 0  0.73 0 0  0.74 0 0  0.75 0 0  0.76 0 0  0.77 0 0  0.78 0 0  0.79 0 0  0.8 0 0  0.8100000000000001 0 0  0.82 0 0  0.83 0 0  0.84 0 0  0.85 0 0  0.86 0 0  0.87 0 0  0.88 0 0  0.89 0 0  0.9 0 0  0.91 0 0  0.92 0 0  0.93 0 0  0.9399999999999999 0 0  0.95 0 0  0.96 0 0  0.97 0 0  0.98 0 0  0.99 0 0  1 0 0  </DataArray>
</Points>
<Cells>
<DataArray  type="UInt32"  Name="connectivity"  format="ascii">0 1  1 2  2 3  3 4  4 5  5 6  6 7  7 8  8 9  9 10  10 11  11 12  12 13  13 14  14 15  15 16  16 17  17 18  18 19  19 20  20 21  21 22  22 23  23 24  24 25  25 26  26 27  27 28  28 29  29 30  30 31  31 32  32 33  33 34  34 35  35 36  36 37  37 38  38 39  39 40  40 41  41 42  42 43  43 44  44 45  45 46  46 47  47 48  48 49  49 50  50 51  51 52  52 53  53 54  54 55  55 56  56 57  57 58  58 59  59 60  60 61  61 62  62 63  63 64  64 65  65 66  66 67  67 68  68 69  69 70  70 71  71 72  72 73  73 74  74 75  75 76  76 77  77 78  78 79  79 80  80 81  81 82  82 83  83 84  84 85  85 86  86 87  87 88  88 89  89 90  90 91  91 92  92 93  93 94  94 95  95 96  96 97  97 98  98 99  99 100  </DataArray>
<DataArray  type="UInt32"  Name="offsets"  format="ascii">2 4 6 8 10 12 14 16 18 20 22 24 26 28 30 32 34 36 38 40 42 44 46 48 50 52 54 56 58 60 62 64 66 68 70 72 74 76 78 80 82 84 86 88 90 92 94 96 98 100 102 104 106 108 110 112 114 116 118 120 122 124 126 128 130 132 134 136 138 140 142 144 146 148 150 152 154 156 158 160 162 164 166 168 170 172 174 176 178 180 182 184 186 188 190 192 194 196 198 200 </DataArray>
<DataArray  type="UInt8"  Name="types"  format="ascii">3 3 3 3 3 3 3 3 3 3 3 3 3 3 3 3 3 3 3 3 3 3 3 3 3 3 3 3 3 3 3 3 3 3 3 3 3 3 3 3 3 3 3 3 3 3 3 3 3 3 3 3 3 3 3 3 3 3 3 3 3 3 3 3 3 3 3 3 3 3 3 3 3 3 3 3 3 3 3 3 3 3 3 3 3 3 3 3 3 3 3 3 3 3 3 3 3 3 3 3 </DataArray>
</Cells>
<PointData  Scalars="f_16"> 
<DataArray  type="Float64"  Name="f_16"  format="ascii">-1.4859396035555059e-01  -1.6347656558100346e-01  -1.8141165904019202e-01  -2.0224244096914931e-01  -2.2581955519548624e-01  -2.5200058630672834e-01  -2.8064966522280754e-01  -3.1163715455373525e-01  -3.4483938998164138e-01  -3.8013845871816915e-01  -4.1742200053691159e-01  -4.5658302078375906e-01  -4.9751970804566581e-01  -5.4013525180336852e-01  -5.8433765744669786e-01  -6.3003955756056684e-01  -6.7715801947617460e-01  -7.2561434980785400e-01  -7.7533389713872447e-01  -8.2624585424638941e-01  -8.7828306133131617e-01  -9.3138181167250500e-01  -9.8548166102485413e-01  -1.0405252419187561e+00  -1.0964580838460682e+00  -1.1532284401328625e+00  -1.2107871221188071e+00  -1.2690873410925965e+00  -1.3280845582768117e+00  -1.3877363430163008e+00  -1.4480022392025687e+00  -1.5088436398627785e+00  -1.5702236697551508e+00  -1.6321070757417280e+00  -1.6944601246533793e+00  -1.7572505083191039e+00  -1.8204472554006330e+00  -1.8840206496525813e+00  -1.9479421542164870e+00  -2.0121843415526182e+00  -2.0767208286151551e+00  -2.1415262168830447e+00  -2.2065760368694400e+00  -2.2718466967461226e+00  -2.3373154347348919e+00  -2.4029602749347396e+00  -2.4687599862710967e+00  -2.5346940442709869e+00  -2.6007425953850252e+00  -2.6668864235935161e+00  -2.7331069190490984e+00  -2.7993860485221571e+00  -2.8657063274274748e+00  -2.9320507932210371e+00  -2.9984029799645842e+00  -3.0647468938621953e+00  -3.1310669895779562e+00  -3.1973481471465011e+00  -3.2635756492889638e+00  -3.3297351589455575e+00  -3.3958126968326976e+00  -3.4617946188271986e+00  -3.5276675929726546e+00  -3.5934185758936117e+00  -3.6590347883914931e+00  -3.7245036899823996e+00  -3.7898129521207302e+00  -3.8549504298339321e+00  -3.9199041314723244e+00  -3.9846621862535789e+00  -4.0492128092536239e+00  -4.1135442634639405e+00  -4.1776448184986750e+00  -4.2415027054926968e+00  -4.3051060676824431e+00  -4.3684429061033558e+00  -4.4315010197687972e+00  -4.4942679396126080e+00  -4.5567308553773502e+00  -4.6188765345079252e+00  -4.6806912319596803e+00  -4.7421605896433965e+00  -4.8032695239968328e+00  -4.8640020998808247e+00  -4.9243413886310972e+00  -4.9842693076338778e+00  -5.0437664382072853e+00  -5.1028118178268125e+00  -5.1613827017875051e+00  -5.2194542881900992e+00  -5.2769993985985755e+00  -5.3339881047441953e+00  -5.3903872891170659e+00  -5.4461601240187933e+00  -5.5012654494189324e+00  -5.5556570244518806e+00  -5.6092826201834223e+00  -5.6620829117768672e+00  -5.7139901155704989e+00  -5.7649262996666115e+00  -5.8148012737376504e+00  </DataArray> 
</PointData> 
</Piece>
</UnstructuredGrid>
</VTKFile>