<?xml version="1.0"?>
<VTKFile type="UnstructuredGrid"  version="0.1"  >
<UnstructuredGrid>
<Piece  NumberOfPoints="101" NumberOfCells="100">
<Points>
<DataArray  type="Float64"  NumberOfComponents="3"  format="ascii">0 0 0  0.01 0 0  0.02 0 0  0.03 0 0  0.04 0 0  0.05 0 0  0.06 0 0  0.07000000000000001 0 0  0.08 0 0  0.09 0 0  0.1 0 0  0.11 0 0  0.12 0 0  0.13 0 0  0.14 0 0  0.15 0 0  0.16 0 0  0.17 0 0  0.18 0 0  0.19 0 0  0.2 0 0  0.21 0 0  0.22 0 0  0.23 0 0  0.24 0 0  0.25 0 0  0.26 0 0  0.27 0 0  0.28 0 0  0.29 0 0  0.3 0 0  0.31 0 0  0.32 0 0  0.33 0 0  0.34 0 0  0.35 0 0  0.36 0 0  0.37 0 0  0.38 0 0  0.39 0 0  0.4 0 0  0.41 0 0  0.42 0 0  0.43 0 0  0.44 0 0  0.45 0 0  0.46 0 0  0.47 0 0  0.48 0 0  0.49 0 0  0.5 0 0  0.51 0 0  0.52 0 0  0.53 0 0  0.54 0 0  0.55 0 0  0.5600000000000001 0 0  0.57 0 0  0.58 0 0  0.59 0 0  0.6 0 0  0.61 0 0  0.62 0 0  0.63 0 0  0.64 0 0  0.65 0 0  0.66 0 0  0.67 0 0  0.68 0 0  0.6899999999999999 0 0  0.7 0 0  0.71 0 0  0.72 0 0  0.73 0 0  0.74 0 0  0.75 0 0  0.76 0 0  0.77 0 0  0.78 0 0  0.79 0 0  0.8 0 0  0.8100000000000001 0 0  0.82 0 0  0.83 0 0  0.84 0 0  0.85 0 0  0.86 0 0  0.87 0 0  0.88 0 0  0.89 0 0  0.9 0 0  0.91 0 0  0.92 0 0  0.93 0 0  0.9399999999999999 0 0  0.95 0 0  0.96 0 0  0.97 0 0  0.98 0 0  0.99 0 0  1 0 0  </DataArray>
</Points>
<Cells>
<DataArray  type="UInt32"  Name="connectivity"  format="ascii">0 1  1 2  2 3  3 4  4 5  5 6  6 7  7 8  8 9  9 10  10 11  11 12  12 13  13 14  14 15  15 16  16 17  17 18  18 19  19 20  20 21  21 22  22 23  23 24  24 25  25 26  26 27  27 28  28 29  29 30  30 31  31 32  32 33  33 34  34 35  35 36  36 37  37 38  38 39  39 40  40 41  41 42  42 43  43 44  44 45  45 46  46 47  47 48  48 49  49 50  50 51  51 52  52 53  53 54  54 55  55 56  56 57  57 58  58 59  59 60  60 61  61 62  62 63  63 64  64 65  65 66  66 67  67 68  68 69  69 70  70 71  71 72  72 73  73 74  74 75  75 76  76 77  77 78  78 79  79 80  80 81  81 82  82 83  83 84  84 85  85 86  86 87  87 88  88 89  89 90  90 91  91 92  92 93  93 94  94 95  95 96  96 97  97 98  98 99  99 100  </DataArray>
<DataArray  type="UInt32"  Name="offsets"  format="ascii">2 4 6 8 10 12 14 16 18 20 22 24 26 28 30 32 34 36 38 40 42 44 46 48 50 52 54 56 58 60 62 64 66 68 70 72 74 76 78 80 82 84 86 88 90 92 94 96 98 100 102 104 106 108 110 112 114 116 118 120 122 124 126 128 130 132 134 136 138 140 142 144 146 148 150 152 154 156 158 160 162 164 166 168 170 172 174 176 178 180 182 184 186 188 190 192 194 196 198 200 </DataArray>
<DataArray  type="UInt8"  Name="types"  format="ascii">3 3 3 3 3 3 3 3 3 3 3 3 3 3 3 3 3 3 3 3 3 3 3 3 3 3 3 3 3 3 3 3 3 3 3 3 3 3 3 3 3 3 3 3 3 3 3 3 3 3 3 3 3 3 3 3 3 3 3 3 3 3 3 3 3 3 3 3 3 3 3 3 3 3 3 3 3 3 3 3 3 3 3 3 3 3 3 3 3 3 3 3 3 3 3 3 3 3 3 3 </DataArray>
</Cells>
<PointData  Scalars="f_16"> 
<DataArray  type="Float64"  Name="f_16"  format="ascii">-1.2666176742124743e-01  -1.4068157617656477e-01  -1.5457323776307350e-01  -1.6838041260257205e-01  -1.8213348921405759e-01  -1.9585428406876537e-01  -2.0955929166616255e-01  -2.2326190168813487e-01  -2.3697388579101722e-01  -2.5070637310607763e-01  -2.6447047232761256e-01  -2.7827765341044730e-01  -2.9213996908727646e-01  -3.0607017251220059e-01  -3.2008177001735083e-01  -3.3418903550616896e-01  -3.4840700411111802e-01  -3.6275145645545898e-01  -3.7723890046512559e-01  -3.9188655464991545e-01  -4.0671233472453572e-01  -4.2173484408487144e-01  -4.3697336778610274e-01  -4.5244786913745721e-01  -4.6817898772643368e-01  -4.8418803753751055e-01  -5.0049700378377004e-01  -5.1712853708824991e-01  -5.3410594371092057e-01  -5.5145317060133048e-01  -5.6919478415663005e-01  -5.8735594167459915e-01  -6.0596235460913350e-01  -6.2504024286093796e-01  -6.4461627946968780e-01  -6.6471752521698024e-01  -6.8537135280350980e-01  -7.0660536043038857e-01  -7.2844727479425542e-01  -7.5092484369893653e-01  -7.7406571869227103e-01  -7.9789732835358929e-01  -8.2244674308247523e-01  -8.4774053246897985e-01  -8.7380461655439534e-01  -9.0066411251409895e-01  -9.2834317850300985e-01  -9.5686485659247211e-01  -9.8625091688715150e-01  -1.0165217050341386e+00  -1.0476959954166651e+00  -1.0797908523552797e+00  -1.1128215016149392e+00  -1.1468012144338313e+00  -1.1817412061474617e+00  -1.2176505512804408e+00  -1.2545361167217013e+00  -1.2924025142920998e+00  -1.3312520736642801e+00  -1.3710848362129349e+00  -1.4118985699704163e+00  -1.4536888054501411e+00  -1.4964488916910246e+00  -1.5401700714826780e+00  -1.5848415743649500e+00  -1.6304507256669507e+00  -1.6769830695686094e+00  -1.7244225039386940e+00  -1.7727514245314793e+00  -1.8219508760121044e+00  -1.8720007072282352e+00  -1.9228797281512702e+00  -1.9745658659709309e+00  -2.0270363179385611e+00  -2.0802676987124715e+00  -2.1342361801589260e+00  -2.1889176218015165e+00  -2.2442876903877900e+00  -2.3003219673552850e+00  -2.3569960433326451e+00  -2.4142855992117109e+00  -2.4721664737842999e+00  -2.5306147184686365e+00  -2.5896066402772315e+00  -2.6491188349296455e+00  -2.7091282129281913e+00  -2.7696120225405632e+00  -2.8305478750318995e+00  -2.8919137792361402e+00  -2.9536881947477207e+00  -3.0158501157670172e+00  -3.0783792010910380e+00  -3.1412559700816400e+00  -3.2044620898823348e+00  -3.2679807859506167e+00  -3.3317974164331656e+00  -3.3959002613924545e+00  -3.4602815907935578e+00  -3.5249390908978540e+00  -3.5898777476766872e+00  -3.6551123083224781e+00  </DataArray> 
</PointData> 
</Piece>
</UnstructuredGrid>
</VTKFile>