<?xml version="1.0"?>
<VTKFile type="UnstructuredGrid"  version="0.1"  >
<UnstructuredGrid>
<Piece  NumberOfPoints="101" NumberOfCells="100">
<Points>
<DataArray  type="Float64"  NumberOfComponents="3"  format="ascii">0 0 0  0.01 0 0  0.02 0 0  0.03 0 0  0.04 0 0  0.05 0 0  0.06 0 0  0.07000000000000001 0 0  0.08 0 0  0.09 0 0  0.1 0 0  0.11 0 0  0.12 0 0  0.13 0 0  0.14 0 0  0.15 0 0  0.16 0 0  0.17 0 0  0.18 0 0  0.19 0 0  0.2 0 0  0.21 0 0  0.22 0 0  0.23 0 0  0.24 0 0  0.25 0 0  0.26 0 0  0.27 0 0  0.28 0 0  0.29 0 0  0.3 0 0  0.31 0 0  0.32 0 0  0.33 0 0  0.34 0 0  0.35 0 0  0.36 0 0  0.37 0 0  0.38 0 0  0.39 0 0  0.4 0 0  0.41 0 0  0.42 0 0  0.43 0 0  0.44 0 0  0.45 0 0  0.46 0 0  0.47 0 0  0.48 0 0  0.49 0 0  0.5 0 0  0.51 0 0  0.52 0 0  0.53 0 0  0.54 0 0  0.55 0 0  0.5600000000000001 0 0  0.57 0 0  0.58 0 0  0.59 0 0  0.6 0 0  0.61 0 0  0.62 0 0  0.63 0 0  0.64 0 0  0.65 0 0  0.66 0 0  0.67 0 0  0.68 0 0  0.6899999999999999 0 0  0.7 0 0  0.71 0 0  0.72 0 0  0.73 0 0  0.74 0 0  0.75 0 0  0.76 0 0  0.77 0 0  0.78 0 0  0.79 0 0  0.8 0 0  0.8100000000000001 0 0  0.82 0 0  0.83 0 0  0.84 0 0  0.85 0 0  0.86 0 0  0.87 0 0  0.88 0 0  0.89 0 0  0.9 0 0  0.91 0 0  0.92 0 0  0.93 0 0  0.9399999999999999 0 0  0.95 0 0  0.96 0 0  0.97 0 0  0.98 0 0  0.99 0 0  1 0 0  </DataArray>
</Points>
<Cells>
<DataArray  type="UInt32"  Name="connectivity"  format="ascii">0 1  1 2  2 3  3 4  4 5  5 6  6 7  7 8  8 9  9 10  10 11  11 12  12 13  13 14  14 15  15 16  16 17  17 18  18 19  19 20  20 21  21 22  22 23  23 24  24 25  25 26  26 27  27 28  28 29  29 30  30 31  31 32  32 33  33 34  34 35  35 36  36 37  37 38  38 39  39 40  40 41  41 42  42 43  43 44  44 45  45 46  46 47  47 48  48 49  49 50  50 51  51 52  52 53  53 54  54 55  55 56  56 57  57 58  58 59  59 60  60 61  61 62  62 63  63 64  64 65  65 66  66 67  67 68  68 69  69 70  70 71  71 72  72 73  73 74  74 75  75 76  76 77  77 78  78 79  79 80  80 81  81 82  82 83  83 84  84 85  85 86  86 87  87 88  88 89  89 90  90 91  91 92  92 93  93 94  94 95  95 96  96 97  97 98  98 99  99 100  </DataArray>
<DataArray  type="UInt32"  Name="offsets"  format="ascii">2 4 6 8 10 12 14 16 18 20 22 24 26 28 30 32 34 36 38 40 42 44 46 48 50 52 54 56 58 60 62 64 66 68 70 72 74 76 78 80 82 84 86 88 90 92 94 96 98 100 102 104 106 108 110 112 114 116 118 120 122 124 126 128 130 132 134 136 138 140 142 144 146 148 150 152 154 156 158 160 162 164 166 168 170 172 174 176 178 180 182 184 186 188 190 192 194 196 198 200 </DataArray>
<DataArray  type="UInt8"  Name="types"  format="ascii">3 3 3 3 3 3 3 3 3 3 3 3 3 3 3 3 3 3 3 3 3 3 3 3 3 3 3 3 3 3 3 3 3 3 3 3 3 3 3 3 3 3 3 3 3 3 3 3 3 3 3 3 3 3 3 3 3 3 3 3 3 3 3 3 3 3 3 3 3 3 3 3 3 3 3 3 3 3 3 3 3 3 3 3 3 3 3 3 3 3 3 3 3 3 3 3 3 3 3 3 </DataArray>
</Cells>
<PointData  Scalars="f_16"> 
<DataArray  type="Float64"  Name="f_16"  format="ascii">-2.6270208908593140e-01  -2.7771354861137426e-01  -2.9535217386161300e-01  -3.1562414511953318e-01  -3.3851375069788747e-01  -3.6398511541270701e-01  -3.9198416680130754e-01  -4.2244078293906279e-01  -4.5527105774027055e-01  -4.9037961674705555e-01  -5.2766191818655683e-01  -5.6700647975418783e-01  -6.0829698018091227e-01  -6.5141419509140686e-01  -6.9623773791123478e-01  -7.4264758771463968e-01  -7.9052539619136952e-01  -8.3975557484212759e-01  -8.9022617079622002e-01  -9.4182954518171269e-01  -9.9446287182017046e-01  -1.0480284763250363e+00  -1.1024340366805865e+00  -1.1575926663218961e+00  -1.2134228998809573e+00  -1.2698486003467890e+00  -1.3267988046142660e+00  -1.3842075224375434e+00  -1.4420135017925702e+00  -1.5001599716880258e+00  -1.5585943716136013e+00  -1.6172680751222688e+00  -1.6761361135325104e+00  -1.7351569044157011e+00  -1.7942919884004243e+00  -1.8535057768694898e+00  -1.9127653123323081e+00  -1.9720400426080693e+00  -2.0313016094360918e+00  -2.0905236517210710e+00  -2.1496816233061540e+00  -2.2087526249304852e+00  -2.2677152498564079e+00  -2.3265494425328743e+00  -2.3852363695854093e+00  -2.4437583023803771e+00  -2.5020985103948772e+00  -2.5602411646271892e+00  -2.6181712503012342e+00  -2.6758744881478993e+00  -2.7333372635830027e+00  -2.7905465631435056e+00  -2.8474899175882671e+00  -2.9041553511155969e+00  -2.9605313361958552e+00  -3.0166067535625034e+00  -3.0723708569486230e+00  -3.1278132421975808e+00  -3.1829238204158417e+00  -3.2376927948727841e+00  -3.2921106413866492e+00  -3.3461680919673560e+00  -3.3998561215159984e+00  -3.4531659374073751e+00  -3.5060889718060868e+00  -3.5586168765887507e+00  -3.6107415207649032e+00  -3.6624549903075927e+00  -3.7137495903217523e+00  -3.7646178494948042e+00  -3.8150525267900584e+00  -3.8650466203601854e+00  -3.9145933786762739e+00  -3.9636863138889367e+00  -4.0123192174630882e+00  -4.0604861781592465e+00  -4.1081816024737163e+00  -4.1554002377005803e+00  -4.2021371978432578e+00  -4.2483879926864727e+00  -4.2941485604452607e+00  -4.3394153045414692e+00  -4.3841851352260095e+00  -4.4284555169735942e+00  -4.4722245228330584e+00  -4.5154908972283598e+00  -4.5582541290807423e+00  -4.6005145375688290e+00  -4.6422733733672716e+00  -4.6835329388107132e+00  -4.7242967311202575e+00  -4.7645696136020810e+00  -4.8043580205738312e+00  -4.8436702026777958e+00  -4.8825165201737768e+00  -4.9209097927302192e+00  -4.9588657150958184e+00  -4.9964033487671848e+00  -5.0335457002884922e+00  -5.0703203970352826e+00  -5.1067604711580818e+00  </DataArray> 
</PointData> 
</Piece>
</UnstructuredGrid>
</VTKFile>