<?xml version="1.0"?>
<VTKFile type="UnstructuredGrid"  version="0.1"  >
<UnstructuredGrid>
<Piece  NumberOfPoints="101" NumberOfCells="100">
<Points>
<DataArray  type="Float64"  NumberOfComponents="3"  format="ascii">0 0 0  0.01 0 0  0.02 0 0  0.03 0 0  0.04 0 0  0.05 0 0  0.06 0 0  0.07000000000000001 0 0  0.08 0 0  0.09 0 0  0.1 0 0  0.11 0 0  0.12 0 0  0.13 0 0  0.14 0 0  0.15 0 0  0.16 0 0  0.17 0 0  0.18 0 0  0.19 0 0  0.2 0 0  0.21 0 0  0.22 0 0  0.23 0 0  0.24 0 0  0.25 0 0  0.26 0 0  0.27 0 0  0.28 0 0  0.29 0 0  0.3 0 0  0.31 0 0  0.32 0 0  0.33 0 0  0.34 0 0  0.35 0 0  0.36 0 0  0.37 0 0  0.38 0 0  0.39 0 0  0.4 0 0  0.41 0 0  0.42 0 0  0.43 0 0  0.44 0 0  0.45 0 0  0.46 0 0  0.47 0 0  0.48 0 0  0.49 0 0  0.5 0 0  0.51 0 0  0.52 0 0  0.53 0 0  0.54 0 0  0.55 0 0  0.5600000000000001 0 0  0.57 0 0  0.58 0 0  0.59 0 0  0.6 0 0  0.61 0 0  0.62 0 0  0.63 0 0  0.64 0 0  0.65 0 0  0.66 0 0  0.67 0 0  0.68 0 0  0.6899999999999999 0 0  0.7 0 0  0.71 0 0  0.72 0 0  0.73 0 0  0.74 0 0  0.75 0 0  0.76 0 0  0.77 0 0  0.78 0 0  0.79 0 0  0.8 0 0  0.8100000000000001 0 0  0.82 0 0  0.83 0 0  0.84 0 0  0.85 0 0  0.86 0 0  0.87 0 0  0.88 0 0  0.89 0 0  0.9 0 0  0.91 0 0  0.92 0 0  0.93 0 0  0.9399999999999999 0 0  0.95 0 0  0.96 0 0  0.97 0 0  0.98 0 0  0.99 0 0  1 0 0  </DataArray>
</Points>
<Cells>
<DataArray  type="UInt32"  Name="connectivity"  format="ascii">0 1  1 2  2 3  3 4  4 5  5 6  6 7  7 8  8 9  9 10  10 11  11 12  12 13  13 14  14 15  15 16  16 17  17 18  18 19  19 20  20 21  21 22  22 23  23 24  24 25  25 26  26 27  27 28  28 29  29 30  30 31  31 32  32 33  33 34  34 35  35 36  36 37  37 38  38 39  39 40  40 41  41 42  42 43  43 44  44 45  45 46  46 47  47 48  48 49  49 50  50 51  51 52  52 53  53 54  54 55  55 56  56 57  57 58  58 59  59 60  60 61  61 62  62 63  63 64  64 65  65 66  66 67  67 68  68 69  69 70  70 71  71 72  72 73  73 74  74 75  75 76  76 77  77 78  78 79  79 80  80 81  81 82  82 83  83 84  84 85  85 86  86 87  87 88  88 89  89 90  90 91  91 92  92 93  93 94  94 95  95 96  96 97  97 98  98 99  99 100  </DataArray>
<DataArray  type="UInt32"  Name="offsets"  format="ascii">2 4 6 8 10 12 14 16 18 20 22 24 26 28 30 32 34 36 38 40 42 44 46 48 50 52 54 56 58 60 62 64 66 68 70 72 74 76 78 80 82 84 86 88 90 92 94 96 98 100 102 104 106 108 110 112 114 116 118 120 122 124 126 128 130 132 134 136 138 140 142 144 146 148 150 152 154 156 158 160 162 164 166 168 170 172 174 176 178 180 182 184 186 188 190 192 194 196 198 200 </DataArray>
<DataArray  type="UInt8"  Name="types"  format="ascii">3 3 3 3 3 3 3 3 3 3 3 3 3 3 3 3 3 3 3 3 3 3 3 3 3 3 3 3 3 3 3 3 3 3 3 3 3 3 3 3 3 3 3 3 3 3 3 3 3 3 3 3 3 3 3 3 3 3 3 3 3 3 3 3 3 3 3 3 3 3 3 3 3 3 3 3 3 3 3 3 3 3 3 3 3 3 3 3 3 3 3 3 3 3 3 3 3 3 3 3 </DataArray>
</Cells>
<PointData  Scalars="f_16"> 
<DataArray  type="Float64"  Name="f_16"  format="ascii">-1.2677426382771526e-01  -1.4012510032089875e-01  -1.5639066884880914e-01  -1.7553879106294032e-01  -1.9752086914611933e-01  -2.2227309078373506e-01  -2.4971779012800313e-01  -2.7976497724039950e-01  -3.1231401730681302e-01  -3.4725541950694933e-01  -3.8447268306111032e-01  -4.2384414348206634e-01  -4.6524476389877373e-01  -5.0854782279843236e-01  -5.5362645896966145e-01  -6.0035504529601613e-01  -6.4861037408076661e-01  -6.9827264683055967e-01  -7.4922627025841104e-01  -8.0136046734890698e-01  -8.5456971756462030e-01  -9.0875404374573854e-01  -9.6381916516581323e-01  -1.0196765368204754e+00  -1.0762432946292904e+00  -1.1334421251003741e+00  -1.1912010763905634e+00  -1.2494533257988440e+00  -1.3081369167226657e+00  -1.3671944761096770e+00  -1.4265729215385068e+00  -1.4862231653177276e+00  -1.5460998214336883e+00  -1.6061609198182822e+00  -1.6663676312463189e+00  -1.7266840051991608e+00  -1.7870767222312096e+00  -1.8475148617301871e+00  -1.9079696854513617e+00  -1.9684144368105370e+00  -2.0288241556224933e+00  -2.0891755077539553e+00  -2.1494466290082657e+00  -2.2096169824598331e+00  -2.2696672283991299e+00  -2.3295791060242048e+00  -2.3893353260147041e+00  -2.4489194731429236e+00  -2.5083159181083889e+00  -2.5675097378237957e+00  -2.6264866434276541e+00  -2.6852329153502250e+00  -2.7437353448123778e+00  -2.8019811811904973e+00  -2.8599580847334627e+00  -2.9176540841693246e+00  -2.9750575387891174e+00  -3.0321571046429838e+00  -3.0889417045292813e+00  -3.1454005015004847e+00  -3.2015228756505398e+00  -3.2572984039867663e+00  -3.3127168432255827e+00  -3.3677681153851067e+00  -3.4224422960791170e+00  -3.4767296054457435e+00  -3.5306204016704275e+00  -3.5841051770858368e+00  -3.6371745568510430e+00  -3.6898193002278368e+00  -3.7420303044826952e+00  -3.7937986114476785e+00  -3.8451154167712103e+00  -3.8959720818786829e+00  -3.9463601486415372e+00  -3.9962713567196682e+00  -4.0456976634935664e+00  -4.0946312664367950e+00  -4.1430646276936747e+00  -4.1909905005184660e+00  -4.2384019570984233e+00  -4.2852924171215472e+00  -4.3316556762594489e+00  -4.3774859335166525e+00  -4.4227778161524647e+00  -4.4675264006165003e+00  -4.5117272276655749e+00  -4.5553763095670012e+00  -4.5984701270711765e+00  -4.6410056136989493e+00  -4.6829801249011727e+00  -4.7243913899004726e+00  -4.7652374446464609e+00  -4.8055165454816899e+00  -4.8452270650670641e+00  -4.8843673751778134e+00  -4.9229357255920885e+00  -4.9609301350393169e+00  -4.9983483198348493e+00  -5.0351876994375058e+00  -5.0714455371003258e+00  </DataArray> 
</PointData> 
</Piece>
</UnstructuredGrid>
</VTKFile>