<?xml version="1.0"?>
<VTKFile type="UnstructuredGrid"  version="0.1"  >
<UnstructuredGrid>
<Piece  NumberOfPoints="101" NumberOfCells="100">
<Points>
<DataArray  type="Float64"  NumberOfComponents="3"  format="ascii">0 0 0  0.01 0 0  0.02 0 0  0.03 0 0  0.04 0 0  0.05 0 0  0.06 0 0  0.07000000000000001 0 0  0.08 0 0  0.09 0 0  0.1 0 0  0.11 0 0  0.12 0 0  0.13 0 0  0.14 0 0  0.15 0 0  0.16 0 0  0.17 0 0  0.18 0 0  0.19 0 0  0.2 0 0  0.21 0 0  0.22 0 0  0.23 0 0  0.24 0 0  0.25 0 0  0.26 0 0  0.27 0 0  0.28 0 0  0.29 0 0  0.3 0 0  0.31 0 0  0.32 0 0  0.33 0 0  0.34 0 0  0.35 0 0  0.36 0 0  0.37 0 0  0.38 0 0  0.39 0 0  0.4 0 0  0.41 0 0  0.42 0 0  0.43 0 0  0.44 0 0  0.45 0 0  0.46 0 0  0.47 0 0  0.48 0 0  0.49 0 0  0.5 0 0  0.51 0 0  0.52 0 0  0.53 0 0  0.54 0 0  0.55 0 0  0.5600000000000001 0 0  0.57 0 0  0.58 0 0  0.59 0 0  0.6 0 0  0.61 0 0  0.62 0 0  0.63 0 0  0.64 0 0  0.65 0 0  0.66 0 0  0.67 0 0  0.68 0 0  0.6899999999999999 0 0  0.7 0 0  0.71 0 0  0.72 0 0  0.73 0 0  0.74 0 0  0.75 0 0  0.76 0 0  0.77 0 0  0.78 0 0  0.79 0 0  0.8 0 0  0.8100000000000001 0 0  0.82 0 0  0.83 0 0  0.84 0 0  0.85 0 0  0.86 0 0  0.87 0 0  0.88 0 0  0.89 0 0  0.9 0 0  0.91 0 0  0.92 0 0  0.93 0 0  0.9399999999999999 0 0  0.95 0 0  0.96 0 0  0.97 0 0  0.98 0 0  0.99 0 0  1 0 0  </DataArray>
</Points>
<Cells>
<DataArray  type="UInt32"  Name="connectivity"  format="ascii">0 1  1 2  2 3  3 4  4 5  5 6  6 7  7 8  8 9  9 10  10 11  11 12  12 13  13 14  14 15  15 16  16 17  17 18  18 19  19 20  20 21  21 22  22 23  23 24  24 25  25 26  26 27  27 28  28 29  29 30  30 31  31 32  32 33  33 34  34 35  35 36  36 37  37 38  38 39  39 40  40 41  41 42  42 43  43 44  44 45  45 46  46 47  47 48  48 49  49 50  50 51  51 52  52 53  53 54  54 55  55 56  56 57  57 58  58 59  59 60  60 61  61 62  62 63  63 64  64 65  65 66  66 67  67 68  68 69  69 70  70 71  71 72  72 73  73 74  74 75  75 76  76 77  77 78  78 79  79 80  80 81  81 82  82 83  83 84  84 85  85 86  86 87  87 88  88 89  89 90  90 91  91 92  92 93  93 94  94 95  95 96  96 97  97 98  98 99  99 100  </DataArray>
<DataArray  type="UInt32"  Name="offsets"  format="ascii">2 4 6 8 10 12 14 16 18 20 22 24 26 28 30 32 34 36 38 40 42 44 46 48 50 52 54 56 58 60 62 64 66 68 70 72 74 76 78 80 82 84 86 88 90 92 94 96 98 100 102 104 106 108 110 112 114 116 118 120 122 124 126 128 130 132 134 136 138 140 142 144 146 148 150 152 154 156 158 160 162 164 166 168 170 172 174 176 178 180 182 184 186 188 190 192 194 196 198 200 </DataArray>
<DataArray  type="UInt8"  Name="types"  format="ascii">3 3 3 3 3 3 3 3 3 3 3 3 3 3 3 3 3 3 3 3 3 3 3 3 3 3 3 3 3 3 3 3 3 3 3 3 3 3 3 3 3 3 3 3 3 3 3 3 3 3 3 3 3 3 3 3 3 3 3 3 3 3 3 3 3 3 3 3 3 3 3 3 3 3 3 3 3 3 3 3 3 3 3 3 3 3 3 3 3 3 3 3 3 3 3 3 3 3 3 3 </DataArray>
</Cells>
<PointData  Scalars="f_16"> 
<DataArray  type="Float64"  Name="f_16"  format="ascii">-1.5273036031660425e-01  -1.6704241551870325e-01  -1.8427277562442154e-01  -2.0437404396564143e-01  -2.2728619149195622e-01  -2.5293696076748962e-01  -2.8124279754915177e-01  -3.1211017144902553e-01  -3.4543715501564959e-01  -3.8111514359875415e-01  -4.1903061499766003e-01  -4.5906684651987900e-01  -5.0110552619746029e-01  -5.4502821326397799e-01  -5.9071761963203540e-01  -6.3805869840806029e-01  -6.8693953712871814e-01  -7.3725206235661134e-01  -7.8889256868795787e-01  -8.4176208939144936e-01  -8.9576662817816211e-01  -9.5081727238282687e-01  -1.0068302074887803e+00  -1.0637266517866777e+00  -1.1214327283042029e+00  -1.1798792892093706e+00  -1.2390017058492446e+00  -1.2987396355668064e+00  -1.3590367745285070e+00  -1.4198406040481242e+00  -1.4811021363379187e+00  -1.5427756642660664e+00  -1.6048185185470767e+00  -1.6671908348279783e+00  -1.7298553323408381e+00  -1.7927771051525416e+00  -1.8559234265357900e+00  -1.9192635665915379e+00  -1.9827686229545027e+00  -2.0464113641934469e+00  -2.1101660853621595e+00  -2.1740084750528572e+00  -2.2379154932403154e+00  -2.3018652591734350e+00  -2.3658369485636488e+00  -2.4298106993304494e+00  -2.4937675251884257e+00  -2.5576892363935677e+00  -2.6215583670060951e+00  -2.6853581080702846e+00  -2.7490722461568327e+00  -2.8126851067587890e+00  -2.8761815020770620e+00  -2.9395466827751178e+00  -3.0027662933244055e+00  -3.0658263306018259e+00  -3.1287131054381607e+00  -3.1914132068516978e+00  -3.2539134687344231e+00  -3.3162009387891640e+00  -3.3782628495452185e+00  -3.4400865913074186e+00  -3.5016596869195649e+00  -3.5629697682480388e+00  -3.6240045543153840e+00  -3.6847518310371843e+00  -3.7451994325389557e+00  -3.8053352240534384e+00  -3.8651470864229953e+00  -3.9246229022572456e+00  -3.9837505438229708e+00  -4.0425178627720886e+00  -4.1009126818445045e+00  -4.1589227887160130e+00  -4.2165359321973428e+00  -4.2737398210285837e+00  -4.3305221255531645e+00  -4.3868704825960734e+00  -4.4427725039103461e+00  -4.4982157885911533e+00  -4.5531879398838511e+00  -4.6076765868250957e+00  -4.6616694111461685e+00  -4.7151541798234833e+00  -4.7681187835673002e+00  -4.8205512813755496e+00  -4.8724399510183298e+00  -4.9237733449255527e+00  -4.9745403503810053e+00  -5.0247302521250878e+00  -5.0743327943663514e+00  -5.1233382377136207e+00  -5.1717374045633493e+00  -5.2195217038890078e+00  -5.2666831230388933e+00  -5.3132141698946516e+00  -5.3591077433971526e+00  -5.4043569038197505e+00  -5.4489545060692679e+00  -5.4928926495397921e+00  -5.5361618864763154e+00  </DataArray> 
</PointData> 
</Piece>
</UnstructuredGrid>
</VTKFile>