<?xml version="1.0"?>
<VTKFile type="UnstructuredGrid"  version="0.1"  >
<UnstructuredGrid>
<Piece  NumberOfPoints="101" NumberOfCells="100">
<Points>
<DataArray  type="Float64"  NumberOfComponents="3"  format="ascii">0 0 0  0.01 0 0  0.02 0 0  0.03 0 0  0.04 0 0  0.05 0 0  0.06 0 0  0.07000000000000001 0 0  0.08 0 0  0.09 0 0  0.1 0 0  0.11 0 0  0.12 0 0  0.13 0 0  0.14 0 0  0.15 0 0  0.16 0 0  0.17 0 0  0.18 0 0  0.19 0 0  0.2 0 0  0.21 0 0  0.22 0 0  0.23 0 0  0.24 0 0  0.25 0 0  0.26 0 0  0.27 0 0  0.28 0 0  0.29 0 0  0.3 0 0  0.31 0 0  0.32 0 0  0.33 0 0  0.34 0 0  0.35 0 0  0.36 0 0  0.37 0 0  0.38 0 0  0.39 0 0  0.4 0 0  0.41 0 0  0.42 0 0  0.43 0 0  0.44 0 0  0.45 0 0  0.46 0 0  0.47 0 0  0.48 0 0  0.49 0 0  0.5 0 0  0.51 0 0  0.52 0 0  0.53 0 0  0.54 0 0  0.55 0 0  0.5600000000000001 0 0  0.57 0 0  0.58 0 0  0.59 0 0  0.6 0 0  0.61 0 0  0.62 0 0  0.63 0 0  0.64 0 0  0.65 0 0  0.66 0 0  0.67 0 0  0.68 0 0  0.6899999999999999 0 0  0.7 0 0  0.71 0 0  0.72 0 0  0.73 0 0  0.74 0 0  0.75 0 0  0.76 0 0  0.77 0 0  0.78 0 0  0.79 0 0  0.8 0 0  0.8100000000000001 0 0  0.82 0 0  0.83 0 0  0.84 0 0  0.85 0 0  0.86 0 0  0.87 0 0  0.88 0 0  0.89 0 0  0.9 0 0  0.91 0 0  0.92 0 0  0.93 0 0  0.9399999999999999 0 0  0.95 0 0  0.96 0 0  0.97 0 0  0.98 0 0  0.99 0 0  1 0 0  </DataArray>
</Points>
<Cells>
<DataArray  type="UInt32"  Name="connectivity"  format="ascii">0 1  1 2  2 3  3 4  4 5  5 6  6 7  7 8  8 9  9 10  10 11  11 12  12 13  13 14  14 15  15 16  16 17  17 18  18 19  19 20  20 21  21 22  22 23  23 24  24 25  25 26  26 27  27 28  28 29  29 30  30 31  31 32  32 33  33 34  34 35  35 36  36 37  37 38  38 39  39 40  40 41  41 42  42 43  43 44  44 45  45 46  46 47  47 48  48 49  49 50  50 51  51 52  52 53  53 54  54 55  55 56  56 57  57 58  58 59  59 60  60 61  61 62  62 63  63 64  64 65  65 66  66 67  67 68  68 69  69 70  70 71  71 72  72 73  73 74  74 75  75 76  76 77  77 78  78 79  79 80  80 81  81 82  82 83  83 84  84 85  85 86  86 87  87 88  88 89  89 90  90 91  91 92  92 93  93 94  94 95  95 96  96 97  97 98  98 99  99 100  </DataArray>
<DataArray  type="UInt32"  Name="offsets"  format="ascii">2 4 6 8 10 12 14 16 18 20 22 24 26 28 30 32 34 36 38 40 42 44 46 48 50 52 54 56 58 60 62 64 66 68 70 72 74 76 78 80 82 84 86 88 90 92 94 96 98 100 102 104 106 108 110 112 114 116 118 120 122 124 126 128 130 132 134 136 138 140 142 144 146 148 150 152 154 156 158 160 162 164 166 168 170 172 174 176 178 180 182 184 186 188 190 192 194 196 198 200 </DataArray>
<DataArray  type="UInt8"  Name="types"  format="ascii">3 3 3 3 3 3 3 3 3 3 3 3 3 3 3 3 3 3 3 3 3 3 3 3 3 3 3 3 3 3 3 3 3 3 3 3 3 3 3 3 3 3 3 3 3 3 3 3 3 3 3 3 3 3 3 3 3 3 3 3 3 3 3 3 3 3 3 3 3 3 3 3 3 3 3 3 3 3 3 3 3 3 3 3 3 3 3 3 3 3 3 3 3 3 3 3 3 3 3 3 </DataArray>
</Cells>
<PointData  Scalars="f_16"> 
<DataArray  type="Float64"  Name="f_16"  format="ascii">-4.7647704598883794e-01  -5.0165821836221758e-01  -5.2639622891337878e-01  -5.5078184492688020e-01  -5.7490379494976918e-01  -5.9884724883745333e-01  -6.2269295423841686e-01  -6.4651682826482126e-01  -6.7038985813209095e-01  -6.9437820466653555e-01  -7.1854343196463188e-01  -7.4294280812064750e-01  -7.6762963793719075e-01  -7.9265360040234922e-01  -8.1806107253527904e-01  -8.4389542774703008e-01  -8.7019730170173581e-01  -8.9700482221275002e-01  -9.2435380228036668e-01  -9.5227789720721845e-01  -9.8080872799294505e-01  -1.0099759740480474e+00  -1.0398074387831195e+00  -1.0703290919046919e+00  -1.1015650923447249e+00  -1.1335377957146169e+00  -1.1662677500422309e+00  -1.1997736833487871e+00  -1.2340724863715073e+00  -1.2691791934524825e+00  -1.3051069643053805e+00  -1.3418670690476033e+00  -1.3794688785527895e+00  -1.4179198618423583e+00  -1.4572255918996544e+00  -1.4973897609603095e+00  -1.5384142060116657e+00  -1.5802989449263791e+00  -1.6230422233644377e+00  -1.6666405723074156e+00  -1.7110888758422502e+00  -1.7563804485922037e+00  -1.8025071220024507e+00  -1.8494593385288960e+00  -1.8972262526525501e+00  -1.9457958375485971e+00  -1.9951549961788928e+00  -2.0452896755480037e+00  -2.0961849828643682e+00  -2.1478253023773992e+00  -2.2001944117156178e+00  -2.2532755966270126e+00  -2.3070517631174310e+00  -2.3615055460924426e+00  -2.4166194137292814e+00  -2.4723757669348791e+00  -2.5287570333805016e+00  -2.5857457557402199e+00  -2.6433246738968883e+00  -2.7014768010131833e+00  -2.7601854934947627e+00  -2.8194345149960620e+00  -2.8792080947353882e+00  -2.9394909804936029e+00  -3.0002684867688640e+00  -3.0615265386476387e+00  -3.1232517120285697e+00  -3.1854312708997385e+00  -3.2480532024201478e+00  -3.3111062505914117e+00  -3.3745799493238313e+00  -3.4384646557000198e+00  -3.5027515842164130e+00  -3.5674328427350446e+00  -3.6325014708012398e+00  -3.6979514808729799e+00  -3.7637779028597613e+00  -3.8299768321773273e+00  -3.8965454812837588e+00  -3.9634822343657503e+00  -4.0307867044849184e+00  -4.0984597920661381e+00  -4.1665037431070235e+00  -4.2349222049041693e+00  -4.3037202764235492e+00  -4.3729045496869849e+00  -4.4424831377040492e+00  -4.5124656835526373e+00  -4.5828633442091382e+00  -4.6536887416629735e+00  -4.7249558727375911e+00  -4.7966799679031977e+00  -4.8688772882323654e+00  -4.9415648485470722e+00  -5.0147600537624788e+00  -5.0884802344694107e+00  -5.1627420669190283e+00  -5.2375608617566405e+00  -5.3129497050295882e+00  -5.3889184340333403e+00  -5.4654724292329968e+00  </DataArray> 
</PointData> 
</Piece>
</UnstructuredGrid>
</VTKFile>