<?xml version="1.0"?>
<VTKFile type="UnstructuredGrid"  version="0.1"  >
<UnstructuredGrid>
<Piece  NumberOfPoints="101" NumberOfCells="100">
<Points>
<DataArray  type="Float64"  NumberOfComponents="3"  format="ascii">0 0 0  0.01 0 0  0.02 0 0  0.03 0 0  0.04 0 0  0.05 0 0  0.06 0 0  0.07000000000000001 0 0  0.08 0 0  0.09 0 0  0.1 0 0  0.11 0 0  0.12 0 0  0.13 0 0  0.14 0 0  0.15 0 0  0.16 0 0  0.17 0 0  0.18 0 0  0.19 0 0  0.2 0 0  0.21 0 0  0.22 0 0  0.23 0 0  0.24 0 0  0.25 0 0  0.26 0 0  0.27 0 0  0.28 0 0  0.29 0 0  0.3 0 0  0.31 0 0  0.32 0 0  0.33 0 0  0.34 0 0  0.35 0 0  0.36 0 0  0.37 0 0  0.38 0 0  0.39 0 0  0.4 0 0  0.41 0 0  0.42 0 0  0.43 0 0  0.44 0 0  0.45 0 0  0.46 0 0  0.47 0 0  0.48 0 0  0.49 0 0  0.5 0 0  0.51 0 0  0.52 0 0  0.53 0 0  0.54 0 0  0.55 0 0  0.5600000000000001 0 0  0.57 0 0  0.58 0 0  0.59 0 0  0.6 0 0  0.61 0 0  0.62 0 0  0.63 0 0  0.64 0 0  0.65 0 0  0.66 0 0  0.67 0 0  0.68 0 0  0.6899999999999999 0 0  0.7 0 0  0.71 0 0  0.72 0 0  0.73 0 0  0.74 0 0  0.75 0 0  0.76 0 0  0.77 0 0  0.78 0 0  0.79 0 0  0.8 0 0  0.8100000000000001 0 0  0.82 0 0  0.83 0 0  0.84 0 0  0.85 0 0  0.86 0 0  0.87 0 0  0.88 0 0  0.89 0 0  0.9 0 0  0.91 0 0  0.92 0 0  0.93 0 0  0.9399999999999999 0 0  0.95 0 0  0.96 0 0  0.97 0 0  0.98 0 0  0.99 0 0  1 0 0  </DataArray>
</Points>
<Cells>
<DataArray  type="UInt32"  Name="connectivity"  format="ascii">0 1  1 2  2 3  3 4  4 5  5 6  6 7  7 8  8 9  9 10  10 11  11 12  12 13  13 14  14 15  15 16  16 17  17 18  18 19  19 20  20 21  21 22  22 23  23 24  24 25  25 26  26 27  27 28  28 29  29 30  30 31  31 32  32 33  33 34  34 35  35 36  36 37  37 38  38 39  39 40  40 41  41 42  42 43  43 44  44 45  45 46  46 47  47 48  48 49  49 50  50 51  51 52  52 53  53 54  54 55  55 56  56 57  57 58  58 59  59 60  60 61  61 62  62 63  63 64  64 65  65 66  66 67  67 68  68 69  69 70  70 71  71 72  72 73  73 74  74 75  75 76  76 77  77 78  78 79  79 80  80 81  81 82  82 83  83 84  84 85  85 86  86 87  87 88  88 89  89 90  90 91  91 92  92 93  93 94  94 95  95 96  96 97  97 98  98 99  99 100  </DataArray>
<DataArray  type="UInt32"  Name="offsets"  format="ascii">2 4 6 8 10 12 14 16 18 20 22 24 26 28 30 32 34 36 38 40 42 44 46 48 50 52 54 56 58 60 62 64 66 68 70 72 74 76 78 80 82 84 86 88 90 92 94 96 98 100 102 104 106 108 110 112 114 116 118 120 122 124 126 128 130 132 134 136 138 140 142 144 146 148 150 152 154 156 158 160 162 164 166 168 170 172 174 176 178 180 182 184 186 188 190 192 194 196 198 200 </DataArray>
<DataArray  type="UInt8"  Name="types"  format="ascii">3 3 3 3 3 3 3 3 3 3 3 3 3 3 3 3 3 3 3 3 3 3 3 3 3 3 3 3 3 3 3 3 3 3 3 3 3 3 3 3 3 3 3 3 3 3 3 3 3 3 3 3 3 3 3 3 3 3 3 3 3 3 3 3 3 3 3 3 3 3 3 3 3 3 3 3 3 3 3 3 3 3 3 3 3 3 3 3 3 3 3 3 3 3 3 3 3 3 3 3 </DataArray>
</Cells>
<PointData  Scalars="f_16"> 
<DataArray  type="Float64"  Name="f_16"  format="ascii">1.0777506631032473e-01  1.0103575514696034e-01  9.4116854541193590e-02  8.7012303729429308e-02  7.9718322481638237e-02  7.2233550565410323e-02  6.4559012082542958e-02  5.6697948433547987e-02  4.8655562153075933e-02  4.0438708616218795e-02  3.2055565819270396e-02  2.3515305404685990e-02  1.4827781573990399e-02  6.0032488878742204e-03  -2.9478846725355455e-03  -1.2015266620999178e-02  -2.1188770781154304e-02  -3.0458631810144146e-02  -3.9815546466761963e-02  -4.9250745365249093e-02  -5.8756039264426171e-02  -6.8323843961590761e-02  -7.7947187681071797e-02  -8.7619704540072313e-02  -9.7335617294763019e-02  -1.0708971215873428e-01  -1.1687730807337042e-01  -1.2669422241553160e-01  -1.3653673476478762e-01  -1.4640155002744557e-01  -1.5628576193076057e-01  -1.6618681765816437e-01  -1.7610248419332683e-01  -1.8603081677443106e-01  -1.9597012972661557e-01  -2.0591896983629279e-01  -2.1587609235219651e-01  -2.2584043964095848e-01  -2.3581112248651087e-01  -2.4578740399977073e-01  -2.5576868609542003e-01  -2.6575449849408384e-01  -2.7574449021915487e-01  -2.8573842357660406e-01  -2.9573617063238017e-01  -3.0573771223475221e-01  -3.1574313966777595e-01  -3.2575265906678508e-01  -3.3576659877743081e-01  -3.4578541989649647e-01  -3.5580973029580587e-01  -3.6584030250042071e-01  -3.7587809586943965e-01  -3.8592428361252973e-01  -3.9598028526824808e-01  -4.0604780537154500e-01  -4.1612887914766650e-01  -4.2622592618777738e-01  -4.3634181318734022e-01  -4.4647992696032984e-01  -4.5664425907864270e-01  -4.6683950362337112e-01  -4.7707116966837693e-01  -4.8734571024040929e-01  -4.9767066960523709e-01  -5.0805485080443957e-01  -5.1850850539775650e-01  -5.2904354733222292e-01  -5.3967379273781735e-01  -5.5041522721052105e-01  -5.6128630175162342e-01  -5.7230825794409979e-01  -5.8350548211310849e-01  -5.9490588708164549e-01  -6.0654131863232608e-01  -6.1844798185758887e-01  -6.3066688016064520e-01  -6.4324425670442542e-01  -6.5623202456107022e-01  -6.6968816768910489e-01  -6.8367709021032808e-01  -6.9826988639977194e-01  -7.1354449856764945e-01  -7.2958572495955964e-01  -7.4648503544326994e-01  -7.6434014977218079e-01  -7.8325433247347231e-01  -8.0333536090121649e-01  -8.2469412979142509e-01  -8.4744286777771582e-01  -8.7169295956741144e-01  -8.9755239218024974e-01  -9.2512287445079977e-01  -9.5449671457924390e-01  -9.8575357845358369e-01  -1.0189572881745372e+00  -1.0541528510983733e+00  -1.0913639295115072e+00  -1.1305909643212302e+00  -1.1718101477670724e+00  -1.2149733956450166e+00  </DataArray> 
</PointData> 
</Piece>
</UnstructuredGrid>
</VTKFile>