<?xml version="1.0"?>
<VTKFile type="UnstructuredGrid"  version="0.1"  >
<UnstructuredGrid>
<Piece  NumberOfPoints="101" NumberOfCells="100">
<Points>
<DataArray  type="Float64"  NumberOfComponents="3"  format="ascii">0 0 0  0.01 0 0  0.02 0 0  0.03 0 0  0.04 0 0  0.05 0 0  0.06 0 0  0.07000000000000001 0 0  0.08 0 0  0.09 0 0  0.1 0 0  0.11 0 0  0.12 0 0  0.13 0 0  0.14 0 0  0.15 0 0  0.16 0 0  0.17 0 0  0.18 0 0  0.19 0 0  0.2 0 0  0.21 0 0  0.22 0 0  0.23 0 0  0.24 0 0  0.25 0 0  0.26 0 0  0.27 0 0  0.28 0 0  0.29 0 0  0.3 0 0  0.31 0 0  0.32 0 0  0.33 0 0  0.34 0 0  0.35 0 0  0.36 0 0  0.37 0 0  0.38 0 0  0.39 0 0  0.4 0 0  0.41 0 0  0.42 0 0  0.43 0 0  0.44 0 0  0.45 0 0  0.46 0 0  0.47 0 0  0.48 0 0  0.49 0 0  0.5 0 0  0.51 0 0  0.52 0 0  0.53 0 0  0.54 0 0  0.55 0 0  0.5600000000000001 0 0  0.57 0 0  0.58 0 0  0.59 0 0  0.6 0 0  0.61 0 0  0.62 0 0  0.63 0 0  0.64 0 0  0.65 0 0  0.66 0 0  0.67 0 0  0.68 0 0  0.6899999999999999 0 0  0.7 0 0  0.71 0 0  0.72 0 0  0.73 0 0  0.74 0 0  0.75 0 0  0.76 0 0  0.77 0 0  0.78 0 0  0.79 0 0  0.8 0 0  0.8100000000000001 0 0  0.82 0 0  0.83 0 0  0.84 0 0  0.85 0 0  0.86 0 0  0.87 0 0  0.88 0 0  0.89 0 0  0.9 0 0  0.91 0 0  0.92 0 0  0.93 0 0  0.9399999999999999 0 0  0.95 0 0  0.96 0 0  0.97 0 0  0.98 0 0  0.99 0 0  1 0 0  </DataArray>
</Points>
<Cells>
<DataArray  type="UInt32"  Name="connectivity"  format="ascii">0 1  1 2  2 3  3 4  4 5  5 6  6 7  7 8  8 9  9 10  10 11  11 12  12 13  13 14  14 15  15 16  16 17  17 18  18 19  19 20  20 21  21 22  22 23  23 24  24 25  25 26  26 27  27 28  28 29  29 30  30 31  31 32  32 33  33 34  34 35  35 36  36 37  37 38  38 39  39 40  40 41  41 42  42 43  43 44  44 45  45 46  46 47  47 48  48 49  49 50  50 51  51 52  52 53  53 54  54 55  55 56  56 57  57 58  58 59  59 60  60 61  61 62  62 63  63 64  64 65  65 66  66 67  67 68  68 69  69 70  70 71  71 72  72 73  73 74  74 75  75 76  76 77  77 78  78 79  79 80  80 81  81 82  82 83  83 84  84 85  85 86  86 87  87 88  88 89  89 90  90 91  91 92  92 93  93 94  94 95  95 96  96 97  97 98  98 99  99 100  </DataArray>
<DataArray  type="UInt32"  Name="offsets"  format="ascii">2 4 6 8 10 12 14 16 18 20 22 24 26 28 30 32 34 36 38 40 42 44 46 48 50 52 54 56 58 60 62 64 66 68 70 72 74 76 78 80 82 84 86 88 90 92 94 96 98 100 102 104 106 108 110 112 114 116 118 120 122 124 126 128 130 132 134 136 138 140 142 144 146 148 150 152 154 156 158 160 162 164 166 168 170 172 174 176 178 180 182 184 186 188 190 192 194 196 198 200 </DataArray>
<DataArray  type="UInt8"  Name="types"  format="ascii">3 3 3 3 3 3 3 3 3 3 3 3 3 3 3 3 3 3 3 3 3 3 3 3 3 3 3 3 3 3 3 3 3 3 3 3 3 3 3 3 3 3 3 3 3 3 3 3 3 3 3 3 3 3 3 3 3 3 3 3 3 3 3 3 3 3 3 3 3 3 3 3 3 3 3 3 3 3 3 3 3 3 3 3 3 3 3 3 3 3 3 3 3 3 3 3 3 3 3 3 </DataArray>
</Cells>
<PointData  Scalars="f_16"> 
<DataArray  type="Float64"  Name="f_16"  format="ascii">-9.5676957510958241e-02  -1.0886355258818436e-01  -1.2226163720837104e-01  -1.3586197385817889e-01  -1.4965967396702634e-01  -1.6365273641277600e-01  -1.7784118217891215e-01  -1.9222657539961946e-01  -2.0681178641374254e-01  -2.2160089918701106e-01  -2.3659919849350025e-01  -2.5181319529308782e-01  -2.6725066457583108e-01  -2.8292068061877379e-01  -2.9883364162315085e-01  -3.1500128017004025e-01  -3.3143665864644822e-01  -3.4815415032308078e-01  -3.6516940751563048e-01  -3.8249931851817137e-01  -4.0016195495721296e-01  -4.1817651101186493e-01  -4.3656323566815042e-01  -4.5534335888089084e-01  -4.7453901223996592e-01  -4.9417314449941563e-01  -5.1426943213815435e-01  -5.3485218498391451e-01  -5.5594624684724503e-01  -5.7757689107732824e-01  -5.9976971096193177e-01  -6.2255050494508046e-01  -6.4594515672264230e-01  -6.6997951039232229e-01  -6.9467924097472433e-01  -7.2006972078013654e-01  -7.4617588226533071e-01  -7.7302207819954150e-01  -8.0063194013239292e-01  -8.2902823632221967e-01  -8.5823273043442461e-01  -8.8826604244977914e-01  -9.1914751332588751e-01  -9.5089507502591197e-01  -9.8352512756250854e-01  -1.0170524246981469e+00  -1.0514899698933395e+00  -1.0868489240009516e+00  -1.1231385260685067e+00  -1.1603660284336366e+00  -1.1985366470846446e+00  -1.2376535280140841e+00  -1.2777177300251934e+00  -1.3187282241669016e+00  -1.3606819096815523e+00  -1.4035736460594515e+00  -1.4473963005147255e+00  -1.4921408099362368e+00  -1.5377962561330469e+00  -1.5843499529926526e+00  -1.6317875440071199e+00  -1.6800931085008519e+00  -1.7292492748161592e+00  -1.7792373386794909e+00  -1.8300373849811205e+00  -1.8816284112520201e+00  -1.9339884512101548e+00  -1.9870946968703493e+00  -2.0409236178623789e+00  -2.0954510767759755e+00  -2.1506524395438320e+00  -2.2065026800793448e+00  -2.2629764786000974e+00  -2.3200483132863541e+00  -2.3776925451422675e+00  -2.4358834961423028e+00  -2.4945955209531450e+00  -2.5538030727187460e+00  -2.6134807635795241e+00  -2.6736034207619279e+00  -2.7341461392164113e+00  -2.7950843318934915e+00  -2.8563937788198612e+00  -2.9180506761570366e+00  -2.9800316863769973e+00  -3.0423139905501539e+00  -3.1048753434806069e+00  -3.1676941320023460e+00  -3.2307494361154907e+00  -3.2940210917259041e+00  -3.3574897524666274e+00  -3.4211369463124179e+00  -3.4849451203047379e+00  -3.5488976634999361e+00  -3.6129788940052601e+00  -3.6771739903819012e+00  -3.7414688404017138e+00  -3.8058497706791394e+00  -3.8703031084753987e+00  -3.9348145112435575e+00  -3.9993679792949393e+00  </DataArray> 
</PointData> 
</Piece>
</UnstructuredGrid>
</VTKFile>