<?xml version="1.0"?>
<VTKFile type="UnstructuredGrid"  version="0.1"  >
<UnstructuredGrid>
<Piece  NumberOfPoints="101" NumberOfCells="100">
<Points>
<DataArray  type="Float64"  NumberOfComponents="3"  format="ascii">0 0 0  0.01 0 0  0.02 0 0  0.03 0 0  0.04 0 0  0.05 0 0  0.06 0 0  0.07000000000000001 0 0  0.08 0 0  0.09 0 0  0.1 0 0  0.11 0 0  0.12 0 0  0.13 0 0  0.14 0 0  0.15 0 0  0.16 0 0  0.17 0 0  0.18 0 0  0.19 0 0  0.2 0 0  0.21 0 0  0.22 0 0  0.23 0 0  0.24 0 0  0.25 0 0  0.26 0 0  0.27 0 0  0.28 0 0  0.29 0 0  0.3 0 0  0.31 0 0  0.32 0 0  0.33 0 0  0.34 0 0  0.35 0 0  0.36 0 0  0.37 0 0  0.38 0 0  0.39 0 0  0.4 0 0  0.41 0 0  0.42 0 0  0.43 0 0  0.44 0 0  0.45 0 0  0.46 0 0  0.47 0 0  0.48 0 0  0.49 0 0  0.5 0 0  0.51 0 0  0.52 0 0  0.53 0 0  0.54 0 0  0.55 0 0  0.5600000000000001 0 0  0.57 0 0  0.58 0 0  0.59 0 0  0.6 0 0  0.61 0 0  0.62 0 0  0.63 0 0  0.64 0 0  0.65 0 0  0.66 0 0  0.67 0 0  0.68 0 0  0.6899999999999999 0 0  0.7 0 0  0.71 0 0  0.72 0 0  0.73 0 0  0.74 0 0  0.75 0 0  0.76 0 0  0.77 0 0  0.78 0 0  0.79 0 0  0.8 0 0  0.8100000000000001 0 0  0.82 0 0  0.83 0 0  0.84 0 0  0.85 0 0  0.86 0 0  0.87 0 0  0.88 0 0  0.89 0 0  0.9 0 0  0.91 0 0  0.92 0 0  0.93 0 0  0.9399999999999999 0 0  0.95 0 0  0.96 0 0  0.97 0 0  0.98 0 0  0.99 0 0  1 0 0  </DataArray>
</Points>
<Cells>
<DataArray  type="UInt32"  Name="connectivity"  format="ascii">0 1  1 2  2 3  3 4  4 5  5 6  6 7  7 8  8 9  9 10  10 11  11 12  12 13  13 14  14 15  15 16  16 17  17 18  18 19  19 20  20 21  21 22  22 23  23 24  24 25  25 26  26 27  27 28  28 29  29 30  30 31  31 32  32 33  33 34  34 35  35 36  36 37  37 38  38 39  39 40  40 41  41 42  42 43  43 44  44 45  45 46  46 47  47 48  48 49  49 50  50 51  51 52  52 53  53 54  54 55  55 56  56 57  57 58  58 59  59 60  60 61  61 62  62 63  63 64  64 65  65 66  66 67  67 68  68 69  69 70  70 71  71 72  72 73  73 74  74 75  75 76  76 77  77 78  78 79  79 80  80 81  81 82  82 83  83 84  84 85  85 86  86 87  87 88  88 89  89 90  90 91  91 92  92 93  93 94  94 95  95 96  96 97  97 98  98 99  99 100  </DataArray>
<DataArray  type="UInt32"  Name="offsets"  format="ascii">2 4 6 8 10 12 14 16 18 20 22 24 26 28 30 32 34 36 38 40 42 44 46 48 50 52 54 56 58 60 62 64 66 68 70 72 74 76 78 80 82 84 86 88 90 92 94 96 98 100 102 104 106 108 110 112 114 116 118 120 122 124 126 128 130 132 134 136 138 140 142 144 146 148 150 152 154 156 158 160 162 164 166 168 170 172 174 176 178 180 182 184 186 188 190 192 194 196 198 200 </DataArray>
<DataArray  type="UInt8"  Name="types"  format="ascii">3 3 3 3 3 3 3 3 3 3 3 3 3 3 3 3 3 3 3 3 3 3 3 3 3 3 3 3 3 3 3 3 3 3 3 3 3 3 3 3 3 3 3 3 3 3 3 3 3 3 3 3 3 3 3 3 3 3 3 3 3 3 3 3 3 3 3 3 3 3 3 3 3 3 3 3 3 3 3 3 3 3 3 3 3 3 3 3 3 3 3 3 3 3 3 3 3 3 3 3 </DataArray>
</Cells>
<PointData  Scalars="f_16"> 
<DataArray  type="Float64"  Name="f_16"  format="ascii">-8.6770243550586948e-02  -9.9496091927583463e-02  -1.1209635195601374e-01  -1.2455881180877590e-01  -1.3687871076463209e-01  -1.4905646595240393e-01  -1.6109598860418733e-01  -1.7300345862671565e-01  -1.8478645099334082e-01  -1.9645332869838664e-01  -2.0801283486455263e-01  -2.1947383133472473e-01  -2.3084514308431536e-01  -2.4213547745048253e-01  -2.5335339486348207e-01  -2.6450731382066500e-01  -2.7560553756103945e-01  -2.8665629353144967e-01  -2.9766777949825851e-01  -3.0864821222930744e-01  -3.1960587619697256e-01  -3.3054917085451802e-01  -3.4148665581196597e-01  -3.5242709376239401e-01  -3.6337949134695086e-01  -3.7435313834570882e-01  -3.8535764567968905e-01  -3.9640298273613811e-01  -4.0749951450647931e-01  -4.1865803897075682e-01  -4.2988982508583407e-01  -4.4120665164565842e-01  -4.5262084718643952e-01  -4.6414533101147826e-01  -4.7579365531199824e-01  -4.8758004826295376e-01  -4.9951945787695318e-01  -5.1162759630518029e-01  -5.2392098418129263e-01  -5.3641699451237190e-01  -5.4913389552979042e-01  -5.6209089182217697e-01  -5.7530816298258791e-01  -5.8880689891293825e-01  -6.0260933084152835e-01  -6.1673875702541392e-01  -6.3121956203020491e-01  -6.4607722840803372e-01  -6.6133833953286469e-01  -6.7703057230457864e-01  -6.9318267840351400e-01  -7.0982445277001194e-01  -7.2698668800408262e-01  -7.4470111343392864e-01  -7.6300031769414656e-01  -7.8191765379022105e-01  -8.0148712581014503e-01  -8.2174325668050008e-01  -8.4272093665564896e-01  -8.6445525257558464e-01  -8.8698129832903716e-01  -9.1033396740950467e-01  -9.3454772894584648e-01  -9.5965638911551121e-01  -9.8569284039354754e-01  -1.0126888016371567e+00  -1.0406745525336278e+00  -1.0696786664266364e+00  -1.0997277459582135e+00  -1.1308461662969502e+00  -1.1630558309439034e+00  -1.1963759451952800e+00  -1.2308228122781801e+00  -1.2664096569504182e+00  -1.3031464809618625e+00  -1.3410399542138076e+00  -1.3800933447326333e+00  -1.4203064897091744e+00  -1.4616758088664203e+00  -1.5041943603304504e+00  -1.5478519380206253e+00  -1.5926352083733473e+00  -1.6385278829959753e+00  -1.6855109226370344e+00  -1.7335627666736360e+00  -1.7826595811686128e+00  -1.8327755174425064e+00  -1.8838829720366110e+00  -1.9359528379035831e+00  -1.9889547356376118e+00  -2.0428572125296074e+00  -2.0976278961862396e+00  -2.1532335883684128e+00  -2.2096402835721265e+00  -2.2668130956852184e+00  -2.3247160748060649e+00  -2.3833118950089260e+00  -2.4425613924918843e+00  -2.5024229321498699e+00  -2.5628515791664430e+00  -2.6237980506740386e+00  </DataArray> 
</PointData> 
</Piece>
</UnstructuredGrid>
</VTKFile>