<?xml version="1.0"?>
<VTKFile type="UnstructuredGrid"  version="0.1"  >
<UnstructuredGrid>
<Piece  NumberOfPoints="101" NumberOfCells="100">
<Points>
<DataArray  type="Float64"  NumberOfComponents="3"  format="ascii">0 0 0  0.01 0 0  0.02 0 0  0.03 0 0  0.04 0 0  0.05 0 0  0.06 0 0  0.07000000000000001 0 0  0.08 0 0  0.09 0 0  0.1 0 0  0.11 0 0  0.12 0 0  0.13 0 0  0.14 0 0  0.15 0 0  0.16 0 0  0.17 0 0  0.18 0 0  0.19 0 0  0.2 0 0  0.21 0 0  0.22 0 0  0.23 0 0  0.24 0 0  0.25 0 0  0.26 0 0  0.27 0 0  0.28 0 0  0.29 0 0  0.3 0 0  0.31 0 0  0.32 0 0  0.33 0 0  0.34 0 0  0.35 0 0  0.36 0 0  0.37 0 0  0.38 0 0  0.39 0 0  0.4 0 0  0.41 0 0  0.42 0 0  0.43 0 0  0.44 0 0  0.45 0 0  0.46 0 0  0.47 0 0  0.48 0 0  0.49 0 0  0.5 0 0  0.51 0 0  0.52 0 0  0.53 0 0  0.54 0 0  0.55 0 0  0.5600000000000001 0 0  0.57 0 0  0.58 0 0  0.59 0 0  0.6 0 0  0.61 0 0  0.62 0 0  0.63 0 0  0.64 0 0  0.65 0 0  0.66 0 0  0.67 0 0  0.68 0 0  0.6899999999999999 0 0  0.7 0 0  0.71 0 0  0.72 0 0  0.73 0 0  0.74 0 0  0.75 0 0  0.76 0 0  0.77 0 0  0.78 0 0  0.79 0 0  0.8 0 0  0.8100000000000001 0 0  0.82 0 0  0.83 0 0  0.84 0 0  0.85 0 0  0.86 0 0  0.87 0 0  0.88 0 0  0.89 0 0  0.9 0 0  0.91 0 0  0.92 0 0  0.93 0 0  0.9399999999999999 0 0  0.95 0 0  0.96 0 0  0.97 0 0  0.98 0 0  0.99 0 0  1 0 0  </DataArray>
</Points>
<Cells>
<DataArray  type="UInt32"  Name="connectivity"  format="ascii">0 1  1 2  2 3  3 4  4 5  5 6  6 7  7 8  8 9  9 10  10 11  11 12  12 13  13 14  14 15  15 16  16 17  17 18  18 19  19 20  20 21  21 22  22 23  23 24  24 25  25 26  26 27  27 28  28 29  29 30  30 31  31 32  32 33  33 34  34 35  35 36  36 37  37 38  38 39  39 40  40 41  41 42  42 43  43 44  44 45  45 46  46 47  47 48  48 49  49 50  50 51  51 52  52 53  53 54  54 55  55 56  56 57  57 58  58 59  59 60  60 61  61 62  62 63  63 64  64 65  65 66  66 67  67 68  68 69  69 70  70 71  71 72  72 73  73 74  74 75  75 76  76 77  77 78  78 79  79 80  80 81  81 82  82 83  83 84  84 85  85 86  86 87  87 88  88 89  89 90  90 91  91 92  92 93  93 94  94 95  95 96  96 97  97 98  98 99  99 100  </DataArray>
<DataArray  type="UInt32"  Name="offsets"  format="ascii">2 4 6 8 10 12 14 16 18 20 22 24 26 28 30 32 34 36 38 40 42 44 46 48 50 52 54 56 58 60 62 64 66 68 70 72 74 76 78 80 82 84 86 88 90 92 94 96 98 100 102 104 106 108 110 112 114 116 118 120 122 124 126 128 130 132 134 136 138 140 142 144 146 148 150 152 154 156 158 160 162 164 166 168 170 172 174 176 178 180 182 184 186 188 190 192 194 196 198 200 </DataArray>
<DataArray  type="UInt8"  Name="types"  format="ascii">3 3 3 3 3 3 3 3 3 3 3 3 3 3 3 3 3 3 3 3 3 3 3 3 3 3 3 3 3 3 3 3 3 3 3 3 3 3 3 3 3 3 3 3 3 3 3 3 3 3 3 3 3 3 3 3 3 3 3 3 3 3 3 3 3 3 3 3 3 3 3 3 3 3 3 3 3 3 3 3 3 3 3 3 3 3 3 3 3 3 3 3 3 3 3 3 3 3 3 3 </DataArray>
</Cells>
<PointData  Scalars="f_16"> 
<DataArray  type="Float64"  Name="f_16"  format="ascii">-1.2550889596818493e-01  -1.3964968039550413e-01  -1.5688425832580108e-01  -1.7709697568283758e-01  -2.0017091865044193e-01  -2.2598809330098951e-01  -2.5442966937179073e-01  -2.8537632535685886e-01  -3.1870869631492432e-01  -3.5430790411537078e-01  -3.9205613895804131e-01  -4.3183725790481958e-01  -4.7353736826213505e-01  -5.1704536884351771e-01  -5.6225342879417284e-01  -6.0905739060189346e-01  -6.5735709037173917e-01  -7.0705659395028819e-01  -7.5806435184185839e-01  -8.1029327903459869e-01  -8.6366076793578328e-01  -9.1808864375636579e-01  -9.7350307206690179e-01  -1.0298344280546015e+00  -1.0870171364142447e+00  -1.1449894899498756e+00  -1.2036934539680808e+00  -1.2630744624984247e+00  -1.3230812113484733e+00  -1.3836654520348035e+00  -1.4447817897551249e+00  -1.5063874877944428e+00  -1.5684422800945694e+00  -1.6309081931587477e+00  -1.6937493780048514e+00  -1.7569319525119795e+00  -1.8204238542155164e+00  -1.8841947033838145e+00  -1.9482156760449250e+00  -2.0124593865143461e+00  -2.0768997788957462e+00  -2.1415120269782966e+00  -2.2062724419299395e+00  -2.2711583871800878e+00  -2.3361481998932354e+00  -2.4012211184530101e+00  -2.4663572154013087e+00  -2.5315373353069464e+00  -2.5967430370708815e+00  -2.6619565402091507e+00  -2.7271606746891859e+00  -2.7923388339293731e+00  -2.8574749306051612e+00  -2.9225533549373233e+00  -2.9875589351690479e+00  -3.0524768999682479e+00  -3.1172928425198951e+00  -3.1819926861003647e+00  -3.2465626509518111e+00  -3.3109892222995865e+00  -3.3752591193798236e+00  -3.4393592653675111e+00  -3.5032767581178326e+00  -3.5669988416551357e+00  -3.6305128783645584e+00  -3.6938063218608588e+00  -3.7568666905270183e+00  -3.8196815417312084e+00  -3.8822384467439996e+00  -3.9445249663872772e+00  -4.0065286274509102e+00  -4.0682368999111214e+00  -4.1296371749736203e+00  -4.1907167439421507e+00  -4.2514627778758864e+00  -4.3118623079428939e+00  -4.3719022062966859e+00  -4.4315691671925759e+00  -4.4908496879128297e+00  -4.5497300488757917e+00  -4.6081962920541324e+00  -4.6662341965093175e+00  -4.7238292494500742e+00  -4.7809666107271322e+00  -4.8376310680688617e+00  -4.8938069796260937e+00  -4.9494781995131660e+00  -5.0046279809922618e+00  -5.0592388507402193e+00  -5.1132924462608118e+00  -5.1667693069751355e+00  -5.2196486078752393e+00  -5.2719078229333594e+00  -5.3235223038448485e+00  -5.3744647583471501e+00  -5.4247046116105553e+00  -5.4742072345098949e+00  -5.5229330246622279e+00  -5.5708363309928668e+00  -5.6178642218012032e+00  -5.6639551120944942e+00  </DataArray> 
</PointData> 
</Piece>
</UnstructuredGrid>
</VTKFile>