<?xml version="1.0"?>
<VTKFile type="UnstructuredGrid"  version="0.1"  >
<UnstructuredGrid>
<Piece  NumberOfPoints="101" NumberOfCells="100">
<Points>
<DataArray  type="Float64"  NumberOfComponents="3"  format="ascii">0 0 0  0.01 0 0  0.02 0 0  0.03 0 0  0.04 0 0  0.05 0 0  0.06 0 0  0.07000000000000001 0 0  0.08 0 0  0.09 0 0  0.1 0 0  0.11 0 0  0.12 0 0  0.13 0 0  0.14 0 0  0.15 0 0  0.16 0 0  0.17 0 0  0.18 0 0  0.19 0 0  0.2 0 0  0.21 0 0  0.22 0 0  0.23 0 0  0.24 0 0  0.25 0 0  0.26 0 0  0.27 0 0  0.28 0 0  0.29 0 0  0.3 0 0  0.31 0 0  0.32 0 0  0.33 0 0  0.34 0 0  0.35 0 0  0.36 0 0  0.37 0 0  0.38 0 0  0.39 0 0  0.4 0 0  0.41 0 0  0.42 0 0  0.43 0 0  0.44 0 0  0.45 0 0  0.46 0 0  0.47 0 0  0.48 0 0  0.49 0 0  0.5 0 0  0.51 0 0  0.52 0 0  0.53 0 0  0.54 0 0  0.55 0 0  0.5600000000000001 0 0  0.57 0 0  0.58 0 0  0.59 0 0  0.6 0 0  0.61 0 0  0.62 0 0  0.63 0 0  0.64 0 0  0.65 0 0  0.66 0 0  0.67 0 0  0.68 0 0  0.6899999999999999 0 0  0.7 0 0  0.71 0 0  0.72 0 0  0.73 0 0  0.74 0 0  0.75 0 0  0.76 0 0  0.77 0 0  0.78 0 0  0.79 0 0  0.8 0 0  0.8100000000000001 0 0  0.82 0 0  0.83 0 0  0.84 0 0  0.85 0 0  0.86 0 0  0.87 0 0  0.88 0 0  0.89 0 0  0.9 0 0  0.91 0 0  0.92 0 0  0.93 0 0  0.9399999999999999 0 0  0.95 0 0  0.96 0 0  0.97 0 0  0.98 0 0  0.99 0 0  1 0 0  </DataArray>
</Points>
<Cells>
<DataArray  type="UInt32"  Name="connectivity"  format="ascii">0 1  1 2  2 3  3 4  4 5  5 6  6 7  7 8  8 9  9 10  10 11  11 12  12 13  13 14  14 15  15 16  16 17  17 18  18 19  19 20  20 21  21 22  22 23  23 24  24 25  25 26  26 27  27 28  28 29  29 30  30 31  31 32  32 33  33 34  34 35  35 36  36 37  37 38  38 39  39 40  40 41  41 42  42 43  43 44  44 45  45 46  46 47  47 48  48 49  49 50  50 51  51 52  52 53  53 54  54 55  55 56  56 57  57 58  58 59  59 60  60 61  61 62  62 63  63 64  64 65  65 66  66 67  67 68  68 69  69 70  70 71  71 72  72 73  73 74  74 75  75 76  76 77  77 78  78 79  79 80  80 81  81 82  82 83  83 84  84 85  85 86  86 87  87 88  88 89  89 90  90 91  91 92  92 93  93 94  94 95  95 96  96 97  97 98  98 99  99 100  </DataArray>
<DataArray  type="UInt32"  Name="offsets"  format="ascii">2 4 6 8 10 12 14 16 18 20 22 24 26 28 30 32 34 36 38 40 42 44 46 48 50 52 54 56 58 60 62 64 66 68 70 72 74 76 78 80 82 84 86 88 90 92 94 96 98 100 102 104 106 108 110 112 114 116 118 120 122 124 126 128 130 132 134 136 138 140 142 144 146 148 150 152 154 156 158 160 162 164 166 168 170 172 174 176 178 180 182 184 186 188 190 192 194 196 198 200 </DataArray>
<DataArray  type="UInt8"  Name="types"  format="ascii">3 3 3 3 3 3 3 3 3 3 3 3 3 3 3 3 3 3 3 3 3 3 3 3 3 3 3 3 3 3 3 3 3 3 3 3 3 3 3 3 3 3 3 3 3 3 3 3 3 3 3 3 3 3 3 3 3 3 3 3 3 3 3 3 3 3 3 3 3 3 3 3 3 3 3 3 3 3 3 3 3 3 3 3 3 3 3 3 3 3 3 3 3 3 3 3 3 3 3 3 </DataArray>
</Cells>
<PointData  Scalars="f_16"> 
<DataArray  type="Float64"  Name="f_16"  format="ascii">-7.1938226439320754e-02  -8.4294726171215112e-02  -9.6701989196302920e-02  -1.0912905613854065e-01  -1.2155814099779451e-01  -1.3398063075599378e-01  -1.4639419197221162e-01  -1.5880070597263385e-01  -1.7120481945768118e-01  -1.8361294852338425e-01  -1.9603261375876102e-01  -2.0847201456195794e-01  -2.2093977409658982e-01  -2.3344480400263826e-01  -2.4599625136871667e-01  -2.5860350056993997e-01  -2.7127621015662023e-01  -2.8402437064268027e-01  -2.9685837324834385e-01  -3.0978908275072770e-01  -3.2282790985696863e-01  -3.3598688014258604e-01  -3.4927869774950554e-01  -3.6271680283306945e-01  -3.7631542227658094e-01  -3.9008961352490684e-01  -4.0405530157823949e-01  -4.1822930927343355e-01  -4.3262938099384018e-01  -4.4727419991234957e-01  -4.6218339880392351e-01  -4.7737756437655926e-01  -4.9287823497355254e-01  -5.0870789140298200e-01  -5.2488994055871319e-01  -5.4144869141589846e-01  -5.5840932291706169e-01  -5.7579784321592542e-01  -5.9364103971826465e-01  -6.1196641935496809e-01  -6.3080213854460765e-01  -6.5017692235320390e-01  -6.7011997243922239e-01  -6.9066086348326605e-01  -7.1182942794495274e-01  -7.3365562916374139e-01  -7.5616942302471790e-01  -7.7940060864214700e-01  -8.0337866876924657e-01  -8.2813260091713037e-01  -8.5369074045276960e-01  -8.8008057723736544e-01  -9.0732856765373648e-01  -9.3545994414420064e-01  -9.6449852462830887e-01  -9.9446652438174588e-01  -1.0253843731230463e+00  -1.0572705401636073e+00  -1.0901413705202787e+00  -1.1240109348620326e+00  -1.1588908960587654e+00  -1.1947903949199565e+00  -1.2317159574556527e+00  -1.2696714256672639e+00  -1.3086579134892871e+00  -1.3486737890664506e+00  -1.3897146840773871e+00  -1.4317735303208492e+00  -1.4748406232795628e+00  -1.5189037118858586e+00  -1.5639481132470225e+00  -1.6099568506597686e+00  -1.6569108128627030e+00  -1.7047889321501644e+00  -1.7535683787037910e+00  -1.8032247682890894e+00  -1.8537323803085739e+00  -1.9050643830923268e+00  -1.9571930632288901e+00  -2.0100900556786878e+00  -2.0637265713499602e+00  -2.1180736187319038e+00  -2.1731022160471563e+00  -2.2287835901791264e+00  -2.2850893583194440e+00  -2.3419916878346392e+00  -2.3994634292329180e+00  -2.4574782162814470e+00  -2.5160105262358936e+00  -2.5750356917442940e+00  -2.6345298542143483e+00  -2.6944698462126748e+00  -2.7548329877058753e+00  -2.8155967775441990e+00  -2.8767384573871935e+00  -2.9382344200937189e+00  -3.0000594282044259e+00  -3.0621856002078331e+00  -3.1245811123536629e+00  -3.1872085512307882e+00  -3.2500228362633012e+00  </DataArray> 
</PointData> 
</Piece>
</UnstructuredGrid>
</VTKFile>