<?xml version="1.0"?>
<VTKFile type="UnstructuredGrid"  version="0.1"  >
<UnstructuredGrid>
<Piece  NumberOfPoints="101" NumberOfCells="100">
<Points>
<DataArray  type="Float64"  NumberOfComponents="3"  format="ascii">0 0 0  0.01 0 0  0.02 0 0  0.03 0 0  0.04 0 0  0.05 0 0  0.06 0 0  0.07000000000000001 0 0  0.08 0 0  0.09 0 0  0.1 0 0  0.11 0 0  0.12 0 0  0.13 0 0  0.14 0 0  0.15 0 0  0.16 0 0  0.17 0 0  0.18 0 0  0.19 0 0  0.2 0 0  0.21 0 0  0.22 0 0  0.23 0 0  0.24 0 0  0.25 0 0  0.26 0 0  0.27 0 0  0.28 0 0  0.29 0 0  0.3 0 0  0.31 0 0  0.32 0 0  0.33 0 0  0.34 0 0  0.35 0 0  0.36 0 0  0.37 0 0  0.38 0 0  0.39 0 0  0.4 0 0  0.41 0 0  0.42 0 0  0.43 0 0  0.44 0 0  0.45 0 0  0.46 0 0  0.47 0 0  0.48 0 0  0.49 0 0  0.5 0 0  0.51 0 0  0.52 0 0  0.53 0 0  0.54 0 0  0.55 0 0  0.5600000000000001 0 0  0.57 0 0  0.58 0 0  0.59 0 0  0.6 0 0  0.61 0 0  0.62 0 0  0.63 0 0  0.64 0 0  0.65 0 0  0.66 0 0  0.67 0 0  0.68 0 0  0.6899999999999999 0 0  0.7 0 0  0.71 0 0  0.72 0 0  0.73 0 0  0.74 0 0  0.75 0 0  0.76 0 0  0.77 0 0  0.78 0 0  0.79 0 0  0.8 0 0  0.8100000000000001 0 0  0.82 0 0  0.83 0 0  0.84 0 0  0.85 0 0  0.86 0 0  0.87 0 0  0.88 0 0  0.89 0 0  0.9 0 0  0.91 0 0  0.92 0 0  0.93 0 0  0.9399999999999999 0 0  0.95 0 0  0.96 0 0  0.97 0 0  0.98 0 0  0.99 0 0  1 0 0  </DataArray>
</Points>
<Cells>
<DataArray  type="UInt32"  Name="connectivity"  format="ascii">0 1  1 2  2 3  3 4  4 5  5 6  6 7  7 8  8 9  9 10  10 11  11 12  12 13  13 14  14 15  15 16  16 17  17 18  18 19  19 20  20 21  21 22  22 23  23 24  24 25  25 26  26 27  27 28  28 29  29 30  30 31  31 32  32 33  33 34  34 35  35 36  36 37  37 38  38 39  39 40  40 41  41 42  42 43  43 44  44 45  45 46  46 47  47 48  48 49  49 50  50 51  51 52  52 53  53 54  54 55  55 56  56 57  57 58  58 59  59 60  60 61  61 62  62 63  63 64  64 65  65 66  66 67  67 68  68 69  69 70  70 71  71 72  72 73  73 74  74 75  75 76  76 77  77 78  78 79  79 80  80 81  81 82  82 83  83 84  84 85  85 86  86 87  87 88  88 89  89 90  90 91  91 92  92 93  93 94  94 95  95 96  96 97  97 98  98 99  99 100  </DataArray>
<DataArray  type="UInt32"  Name="offsets"  format="ascii">2 4 6 8 10 12 14 16 18 20 22 24 26 28 30 32 34 36 38 40 42 44 46 48 50 52 54 56 58 60 62 64 66 68 70 72 74 76 78 80 82 84 86 88 90 92 94 96 98 100 102 104 106 108 110 112 114 116 118 120 122 124 126 128 130 132 134 136 138 140 142 144 146 148 150 152 154 156 158 160 162 164 166 168 170 172 174 176 178 180 182 184 186 188 190 192 194 196 198 200 </DataArray>
<DataArray  type="UInt8"  Name="types"  format="ascii">3 3 3 3 3 3 3 3 3 3 3 3 3 3 3 3 3 3 3 3 3 3 3 3 3 3 3 3 3 3 3 3 3 3 3 3 3 3 3 3 3 3 3 3 3 3 3 3 3 3 3 3 3 3 3 3 3 3 3 3 3 3 3 3 3 3 3 3 3 3 3 3 3 3 3 3 3 3 3 3 3 3 3 3 3 3 3 3 3 3 3 3 3 3 3 3 3 3 3 3 </DataArray>
</Cells>
<PointData  Scalars="f_16"> 
<DataArray  type="Float64"  Name="f_16"  format="ascii">-4.5469658367878890e-01  -4.7936979011757030e-01  -5.0412524253006907e-01  -5.2897329397997817e-01  -5.5392818457432413e-01  -5.7900840177418111e-01  -6.0423656632229228e-01  -6.2963903463767956e-01  -6.5524534994235195e-01  -6.8108763110972581e-01  -7.0719995679571257e-01  -7.3361778001612454e-01  -7.6037739271978322e-01  -7.8751544931174278e-01  -8.1506855114433108e-01  -8.4307288968051453e-01  -8.7156394356824485e-01  -9.0057622367094792e-01  -9.3014305975716005e-01  -9.6029642275691363e-01  -9.9106677702619050e-01  -1.0224829577703709e+00  -1.0545720695571279e+00  -1.0873594026271616e+00  -1.1208683644409876e+00  -1.1551204245530831e+00  -1.1901350714653478e+00  -1.2259297805734208e+00  -1.2625199926817463e+00  -1.2999191028307098e+00  -1.3381384593590115e+00  -1.3771873732260909e+00  -1.4170731376534749e+00  -1.4578010581216116e+00  -1.4993744926915491e+00  -1.5417949025199158e+00  -1.5850619123118426e+00  -1.6291733803196993e+00  -1.6741254773548815e+00  -1.7199127741432760e+00  -1.7665283362291828e+00  -1.8139638255227739e+00  -1.8622096074966750e+00  -1.9112548629707438e+00  -1.9610877033820777e+00  -2.0116952884200456e+00  -2.0630639449130275e+00  -2.1151792858829621e+00  -2.1680263287334820e+00  -2.2215896116044527e+00  -2.2758533070069773e+00  -2.3308013319448553e+00  -2.3864174538276193e+00  -2.4426853915831219e+00  -2.4995889114808989e+00  -2.5571119172780934e+00  -2.6152385343948192e+00  -2.6739531879130114e+00  -2.7332406742699562e+00  -2.7930862265830481e+00  -2.8534755735945558e+00  -2.9143949922631722e+00  -2.9758313540521959e+00  -3.0377721649719494e+00  -3.1002055994263018e+00  -3.1631205278902299e+00  -3.2265065384076048e+00  -3.2903539518467904e+00  -3.3546538307872575e+00  -3.4193979818349916e+00  -3.4845789510799663e+00  -3.5501900123181329e+00  -3.6162251475664298e+00  -3.6826790193063403e+00  -3.7495469338043503e+00  -3.8168247947821476e+00  -3.8845090466524450e+00  -3.9525966065058928e+00  -4.0210847840400374e+00  -4.0899711886731236e+00  -4.1592536231956894e+00  -4.2289299634945055e+00  -4.2989980241508627e+00  -4.3694554100843535e+00  -4.4402993549006906e+00  -4.5115265472259800e+00  -4.5831329470890241e+00  -4.6551135953680065e+00  -4.7274624204700411e+00  -4.8001720477851721e+00  -4.8732336190771148e+00  -4.9466366308717724e+00  -5.0203688031178668e+00  -5.0944159919660477e+00  -5.1687621634985694e+00  -5.2433894487093182e+00  -5.3182783040679684e+00  -5.3934078067045830e+00  -5.4687561187413669e+00  -5.5443011617088880e+00  -5.6200215494477188e+00  </DataArray> 
</PointData> 
</Piece>
</UnstructuredGrid>
</VTKFile>