<?xml version="1.0"?>
<VTKFile type="UnstructuredGrid"  version="0.1"  >
<UnstructuredGrid>
<Piece  NumberOfPoints="101" NumberOfCells="100">
<Points>
<DataArray  type="Float64"  NumberOfComponents="3"  format="ascii">0 0 0  0.01 0 0  0.02 0 0  0.03 0 0  0.04 0 0  0.05 0 0  0.06 0 0  0.07000000000000001 0 0  0.08 0 0  0.09 0 0  0.1 0 0  0.11 0 0  0.12 0 0  0.13 0 0  0.14 0 0  0.15 0 0  0.16 0 0  0.17 0 0  0.18 0 0  0.19 0 0  0.2 0 0  0.21 0 0  0.22 0 0  0.23 0 0  0.24 0 0  0.25 0 0  0.26 0 0  0.27 0 0  0.28 0 0  0.29 0 0  0.3 0 0  0.31 0 0  0.32 0 0  0.33 0 0  0.34 0 0  0.35 0 0  0.36 0 0  0.37 0 0  0.38 0 0  0.39 0 0  0.4 0 0  0.41 0 0  0.42 0 0  0.43 0 0  0.44 0 0  0.45 0 0  0.46 0 0  0.47 0 0  0.48 0 0  0.49 0 0  0.5 0 0  0.51 0 0  0.52 0 0  0.53 0 0  0.54 0 0  0.55 0 0  0.5600000000000001 0 0  0.57 0 0  0.58 0 0  0.59 0 0  0.6 0 0  0.61 0 0  0.62 0 0  0.63 0 0  0.64 0 0  0.65 0 0  0.66 0 0  0.67 0 0  0.68 0 0  0.6899999999999999 0 0  0.7 0 0  0.71 0 0  0.72 0 0  0.73 0 0  0.74 0 0  0.75 0 0  0.76 0 0  0.77 0 0  0.78 0 0  0.79 0 0  0.8 0 0  0.8100000000000001 0 0  0.82 0 0  0.83 0 0  0.84 0 0  0.85 0 0  0.86 0 0  0.87 0 0  0.88 0 0  0.89 0 0  0.9 0 0  0.91 0 0  0.92 0 0  0.93 0 0  0.9399999999999999 0 0  0.95 0 0  0.96 0 0  0.97 0 0  0.98 0 0  0.99 0 0  1 0 0  </DataArray>
</Points>
<Cells>
<DataArray  type="UInt32"  Name="connectivity"  format="ascii">0 1  1 2  2 3  3 4  4 5  5 6  6 7  7 8  8 9  9 10  10 11  11 12  12 13  13 14  14 15  15 16  16 17  17 18  18 19  19 20  20 21  21 22  22 23  23 24  24 25  25 26  26 27  27 28  28 29  29 30  30 31  31 32  32 33  33 34  34 35  35 36  36 37  37 38  38 39  39 40  40 41  41 42  42 43  43 44  44 45  45 46  46 47  47 48  48 49  49 50  50 51  51 52  52 53  53 54  54 55  55 56  56 57  57 58  58 59  59 60  60 61  61 62  62 63  63 64  64 65  65 66  66 67  67 68  68 69  69 70  70 71  71 72  72 73  73 74  74 75  75 76  76 77  77 78  78 79  79 80  80 81  81 82  82 83  83 84  84 85  85 86  86 87  87 88  88 89  89 90  90 91  91 92  92 93  93 94  94 95  95 96  96 97  97 98  98 99  99 100  </DataArray>
<DataArray  type="UInt32"  Name="offsets"  format="ascii">2 4 6 8 10 12 14 16 18 20 22 24 26 28 30 32 34 36 38 40 42 44 46 48 50 52 54 56 58 60 62 64 66 68 70 72 74 76 78 80 82 84 86 88 90 92 94 96 98 100 102 104 106 108 110 112 114 116 118 120 122 124 126 128 130 132 134 136 138 140 142 144 146 148 150 152 154 156 158 160 162 164 166 168 170 172 174 176 178 180 182 184 186 188 190 192 194 196 198 200 </DataArray>
<DataArray  type="UInt8"  Name="types"  format="ascii">3 3 3 3 3 3 3 3 3 3 3 3 3 3 3 3 3 3 3 3 3 3 3 3 3 3 3 3 3 3 3 3 3 3 3 3 3 3 3 3 3 3 3 3 3 3 3 3 3 3 3 3 3 3 3 3 3 3 3 3 3 3 3 3 3 3 3 3 3 3 3 3 3 3 3 3 3 3 3 3 3 3 3 3 3 3 3 3 3 3 3 3 3 3 3 3 3 3 3 3 </DataArray>
</Cells>
<PointData  Scalars="f_16"> 
<DataArray  type="Float64"  Name="f_16"  format="ascii">5.2751779832430713e-02  4.4367574303730575e-02  3.5941328654688715e-02  2.7483841759745244e-02  1.9000158273976803e-02  1.0491198031544937e-02  1.9550721635080040e-03  -6.6118755350084660e-03  -1.5214262742688925e-02  -2.3857060825704914e-02  -3.2545150866106265e-02  -4.1283013016011547e-02  -5.0074522607053827e-02  -5.8922830241436401e-02  -6.7830306620524902e-02  -7.6798536059429073e-02  -8.5828345468025785e-02  -9.4919858053938322e-02  -1.0407256313976401e-01  -1.1328539531166650e-01  -1.2255681765893252e-01  -1.3188490515455129e-01  -1.4126742529487207e-01  -1.5070191398996449e-01  -1.6018574540153388e-01  -1.6971619498608792e-01  -1.7929049543928521e-01  -1.8890588557261684e-01  -1.9855965240325091e-01  -2.0824916691745410e-01  -2.1797191409100655e-01  -2.2772551782816050e-01  -2.3750776152400885e-01  -2.4731660497214408e-01  -2.5715019833734953e-01  -2.6700689389768428e-01  -2.7688525623652599e-01  -2.8678407153679675e-01  -2.9670235659976324e-01  -3.0663936818181808e-01  -3.1659461321625260e-01  -3.2656786046444836e-01  -3.3655915412293941e-01  -3.4656882989985016e-01  -3.5659753406639816e-01  -3.6664624598628454e-01  -3.7671630462743833e-01  -3.8680943956605435e-01  -3.9692780700123353e-01  -4.0707403130862352e-01  -4.1725125267180935e-01  -4.2746318133906097e-01  -4.3771415905830779e-01  -4.4800922824240003e-01  -4.5835420940690286e-01  -4.6875578740044799e-01  -4.7922160690907095e-01  -4.8976037765643793e-01  -5.0038198963621661e-01  -5.1109763859521307e-01  -5.2191996182978517e-01  -5.3286318415632361e-01  -5.4394327366168804e-01  -5.5517810652348221e-01  -5.6658763980506310e-01  -5.7819409066875183e-01  -5.9002211990642917e-01  -6.0209901705499569e-01  -6.1445488364336331e-01  -6.2712281031016504e-01  -6.4013904264535115e-01  -6.5354312965978567e-01  -6.6737804779966692e-01  -6.8169029243305324e-01  -6.9652992779287770e-01  -7.1195058552769130e-01  -7.2800940136570058e-01  -7.4476687903099281e-01  -7.6228667056577915e-01  -7.8063526271777461e-01  -7.9988156015449696e-01  -8.2009635806083758e-01  -8.4135169923106834e-01  -8.6372011410768323e-01  -8.8727374631441058e-01  -9.1208337097209680e-01  -9.3821731828054489e-01  -9.6574032021291867e-01  -9.9471230333376659e-01  -1.0251871552837710e+00  -1.0572114959090790e+00  -1.0908234859007258e+00  -1.1260517057718593e+00  -1.1629141357898829e+00  -1.2014172630355504e+00  -1.2415553352462003e+00  -1.2833097729259406e+00  -1.3266487420204207e+00  -1.3715268801115272e+00  -1.4178851605926404e+00  -1.4656508727292241e+00  </DataArray> 
</PointData> 
</Piece>
</UnstructuredGrid>
</VTKFile>