<?xml version="1.0"?>
<VTKFile type="UnstructuredGrid"  version="0.1"  >
<UnstructuredGrid>
<Piece  NumberOfPoints="101" NumberOfCells="100">
<Points>
<DataArray  type="Float64"  NumberOfComponents="3"  format="ascii">0 0 0  0.01 0 0  0.02 0 0  0.03 0 0  0.04 0 0  0.05 0 0  0.06 0 0  0.07000000000000001 0 0  0.08 0 0  0.09 0 0  0.1 0 0  0.11 0 0  0.12 0 0  0.13 0 0  0.14 0 0  0.15 0 0  0.16 0 0  0.17 0 0  0.18 0 0  0.19 0 0  0.2 0 0  0.21 0 0  0.22 0 0  0.23 0 0  0.24 0 0  0.25 0 0  0.26 0 0  0.27 0 0  0.28 0 0  0.29 0 0  0.3 0 0  0.31 0 0  0.32 0 0  0.33 0 0  0.34 0 0  0.35 0 0  0.36 0 0  0.37 0 0  0.38 0 0  0.39 0 0  0.4 0 0  0.41 0 0  0.42 0 0  0.43 0 0  0.44 0 0  0.45 0 0  0.46 0 0  0.47 0 0  0.48 0 0  0.49 0 0  0.5 0 0  0.51 0 0  0.52 0 0  0.53 0 0  0.54 0 0  0.55 0 0  0.5600000000000001 0 0  0.57 0 0  0.58 0 0  0.59 0 0  0.6 0 0  0.61 0 0  0.62 0 0  0.63 0 0  0.64 0 0  0.65 0 0  0.66 0 0  0.67 0 0  0.68 0 0  0.6899999999999999 0 0  0.7 0 0  0.71 0 0  0.72 0 0  0.73 0 0  0.74 0 0  0.75 0 0  0.76 0 0  0.77 0 0  0.78 0 0  0.79 0 0  0.8 0 0  0.8100000000000001 0 0  0.82 0 0  0.83 0 0  0.84 0 0  0.85 0 0  0.86 0 0  0.87 0 0  0.88 0 0  0.89 0 0  0.9 0 0  0.91 0 0  0.92 0 0  0.93 0 0  0.9399999999999999 0 0  0.95 0 0  0.96 0 0  0.97 0 0  0.98 0 0  0.99 0 0  1 0 0  </DataArray>
</Points>
<Cells>
<DataArray  type="UInt32"  Name="connectivity"  format="ascii">0 1  1 2  2 3  3 4  4 5  5 6  6 7  7 8  8 9  9 10  10 11  11 12  12 13  13 14  14 15  15 16  16 17  17 18  18 19  19 20  20 21  21 22  22 23  23 24  24 25  25 26  26 27  27 28  28 29  29 30  30 31  31 32  32 33  33 34  34 35  35 36  36 37  37 38  38 39  39 40  40 41  41 42  42 43  43 44  44 45  45 46  46 47  47 48  48 49  49 50  50 51  51 52  52 53  53 54  54 55  55 56  56 57  57 58  58 59  59 60  60 61  61 62  62 63  63 64  64 65  65 66  66 67  67 68  68 69  69 70  70 71  71 72  72 73  73 74  74 75  75 76  76 77  77 78  78 79  79 80  80 81  81 82  82 83  83 84  84 85  85 86  86 87  87 88  88 89  89 90  90 91  91 92  92 93  93 94  94 95  95 96  96 97  97 98  98 99  99 100  </DataArray>
<DataArray  type="UInt32"  Name="offsets"  format="ascii">2 4 6 8 10 12 14 16 18 20 22 24 26 28 30 32 34 36 38 40 42 44 46 48 50 52 54 56 58 60 62 64 66 68 70 72 74 76 78 80 82 84 86 88 90 92 94 96 98 100 102 104 106 108 110 112 114 116 118 120 122 124 126 128 130 132 134 136 138 140 142 144 146 148 150 152 154 156 158 160 162 164 166 168 170 172 174 176 178 180 182 184 186 188 190 192 194 196 198 200 </DataArray>
<DataArray  type="UInt8"  Name="types"  format="ascii">3 3 3 3 3 3 3 3 3 3 3 3 3 3 3 3 3 3 3 3 3 3 3 3 3 3 3 3 3 3 3 3 3 3 3 3 3 3 3 3 3 3 3 3 3 3 3 3 3 3 3 3 3 3 3 3 3 3 3 3 3 3 3 3 3 3 3 3 3 3 3 3 3 3 3 3 3 3 3 3 3 3 3 3 3 3 3 3 3 3 3 3 3 3 3 3 3 3 3 3 </DataArray>
</Cells>
<PointData  Scalars="f_16"> 
<DataArray  type="Float64"  Name="f_16"  format="ascii">-3.2913667387840623e-01  -3.4861003499004495e-01  -3.6995578020800024e-01  -3.9314346905222280e-01  -4.1813381537243838e-01  -4.4488165053424805e-01  -4.7333814571793048e-01  -5.0345245991095111e-01  -5.3517294623560163e-01  -5.6844802116390980e-01  -6.0322677817133363e-01  -6.3945940880491881e-01  -6.7709747936527764e-01  -7.1609409982779493e-01  -7.5640401269701185e-01  -7.9798362268984491e-01  -8.4079098302979383e-01  -8.8478575032332485e-01  -9.2992911716507620e-01  -9.7618372952644417e-01  -1.0235135944239824e+00  -1.0718839821889548e+00  -1.1212613267555813e+00  -1.1716131266726557e+00  -1.2229078489651060e+00  -1.2751148374907346e+00  -1.3282042270279346e+00  -1.3821468639770036e+00  -1.4369142342512169e+00  -1.4924783986684549e+00  -1.5488119359265240e+00  -1.6058878930531444e+00  -1.6636797430631356e+00  -1.7221613494287937e+00  -1.7813069368728711e+00  -1.8410910679246009e+00  -1.9014886246352751e+00  -1.9624747948281396e+00  -2.0240250622548386e+00  -2.0861152000442846e+00  -2.1487212668566471e+00  -2.2118196051923018e+00  -2.2753868413503575e+00  -2.3393998865813486e+00  -2.4038359390317154e+00  -2.4686724861318710e+00  -2.5338873071334387e+00  -2.5994584755533556e+00  -2.6653643613319318e+00  -2.7315836325579101e+00  -2.7980952566555644e+00  -2.8648785009665132e+00  -2.9319129326921227e+00  -2.9991784181910441e+00  -3.0666551216506459e+00  -3.1343235031710712e+00  -3.2021643163165043e+00  -3.2701586052002867e+00  -3.3382877011789680e+00  -3.4065332192355102e+00  -3.4748770541338931e+00  -3.5433013764264971e+00  -3.6117886283920448e+00  -3.6803215199756854e+00  -3.7488830247941065e+00  -3.8174563762573759e+00  -3.8860250638456071e+00  -3.9545728295624678e+00  -4.0230836645690333e+00  -4.0915418059805297e+00  -4.1599317337852337e+00  -4.2282381678193151e+00  -4.2964460647042380e+00  -4.3645406146249774e+00  -4.4325072377988324e+00  -4.5003315804576385e+00  -4.5679995101428021e+00  -4.6354971100960984e+00  -4.7028106725239605e+00  -4.7699266905250557e+00  -4.8368318485083677e+00  -4.9035130110024694e+00  -4.9699572098801665e+00  -5.0361516302143636e+00  -5.1020835952642036e+00  -5.1677405514950028e+00  -5.2331100550989049e+00  -5.2981797622530076e+00  -5.3629374263871243e+00  -5.4273709071081342e+00  -5.4914681972329022e+00  -5.5552174767290277e+00  -5.6186072053884226e+00  -5.6816262699284925e+00  -5.7442642061278102e+00  -5.8065115227933992e+00  -5.8683601621001005e+00  -5.9298041404527595e+00  -5.9908404258436718e+00  -6.0514701220667320e+00  -6.1117000474308583e+00  </DataArray> 
</PointData> 
</Piece>
</UnstructuredGrid>
</VTKFile>