<?xml version="1.0"?>
<VTKFile type="UnstructuredGrid"  version="0.1"  >
<UnstructuredGrid>
<Piece  NumberOfPoints="101" NumberOfCells="100">
<Points>
<DataArray  type="Float64"  NumberOfComponents="3"  format="ascii">0 0 0  0.01 0 0  0.02 0 0  0.03 0 0  0.04 0 0  0.05 0 0  0.06 0 0  0.07000000000000001 0 0  0.08 0 0  0.09 0 0  0.1 0 0  0.11 0 0  0.12 0 0  0.13 0 0  0.14 0 0  0.15 0 0  0.16 0 0  0.17 0 0  0.18 0 0  0.19 0 0  0.2 0 0  0.21 0 0  0.22 0 0  0.23 0 0  0.24 0 0  0.25 0 0  0.26 0 0  0.27 0 0  0.28 0 0  0.29 0 0  0.3 0 0  0.31 0 0  0.32 0 0  0.33 0 0  0.34 0 0  0.35 0 0  0.36 0 0  0.37 0 0  0.38 0 0  0.39 0 0  0.4 0 0  0.41 0 0  0.42 0 0  0.43 0 0  0.44 0 0  0.45 0 0  0.46 0 0  0.47 0 0  0.48 0 0  0.49 0 0  0.5 0 0  0.51 0 0  0.52 0 0  0.53 0 0  0.54 0 0  0.55 0 0  0.5600000000000001 0 0  0.57 0 0  0.58 0 0  0.59 0 0  0.6 0 0  0.61 0 0  0.62 0 0  0.63 0 0  0.64 0 0  0.65 0 0  0.66 0 0  0.67 0 0  0.68 0 0  0.6899999999999999 0 0  0.7 0 0  0.71 0 0  0.72 0 0  0.73 0 0  0.74 0 0  0.75 0 0  0.76 0 0  0.77 0 0  0.78 0 0  0.79 0 0  0.8 0 0  0.8100000000000001 0 0  0.82 0 0  0.83 0 0  0.84 0 0  0.85 0 0  0.86 0 0  0.87 0 0  0.88 0 0  0.89 0 0  0.9 0 0  0.91 0 0  0.92 0 0  0.93 0 0  0.9399999999999999 0 0  0.95 0 0  0.96 0 0  0.97 0 0  0.98 0 0  0.99 0 0  1 0 0  </DataArray>
</Points>
<Cells>
<DataArray  type="UInt32"  Name="connectivity"  format="ascii">0 1  1 2  2 3  3 4  4 5  5 6  6 7  7 8  8 9  9 10  10 11  11 12  12 13  13 14  14 15  15 16  16 17  17 18  18 19  19 20  20 21  21 22  22 23  23 24  24 25  25 26  26 27  27 28  28 29  29 30  30 31  31 32  32 33  33 34  34 35  35 36  36 37  37 38  38 39  39 40  40 41  41 42  42 43  43 44  44 45  45 46  46 47  47 48  48 49  49 50  50 51  51 52  52 53  53 54  54 55  55 56  56 57  57 58  58 59  59 60  60 61  61 62  62 63  63 64  64 65  65 66  66 67  67 68  68 69  69 70  70 71  71 72  72 73  73 74  74 75  75 76  76 77  77 78  78 79  79 80  80 81  81 82  82 83  83 84  84 85  85 86  86 87  87 88  88 89  89 90  90 91  91 92  92 93  93 94  94 95  95 96  96 97  97 98  98 99  99 100  </DataArray>
<DataArray  type="UInt32"  Name="offsets"  format="ascii">2 4 6 8 10 12 14 16 18 20 22 24 26 28 30 32 34 36 38 40 42 44 46 48 50 52 54 56 58 60 62 64 66 68 70 72 74 76 78 80 82 84 86 88 90 92 94 96 98 100 102 104 106 108 110 112 114 116 118 120 122 124 126 128 130 132 134 136 138 140 142 144 146 148 150 152 154 156 158 160 162 164 166 168 170 172 174 176 178 180 182 184 186 188 190 192 194 196 198 200 </DataArray>
<DataArray  type="UInt8"  Name="types"  format="ascii">3 3 3 3 3 3 3 3 3 3 3 3 3 3 3 3 3 3 3 3 3 3 3 3 3 3 3 3 3 3 3 3 3 3 3 3 3 3 3 3 3 3 3 3 3 3 3 3 3 3 3 3 3 3 3 3 3 3 3 3 3 3 3 3 3 3 3 3 3 3 3 3 3 3 3 3 3 3 3 3 3 3 3 3 3 3 3 3 3 3 3 3 3 3 3 3 3 3 3 3 </DataArray>
</Cells>
<PointData  Scalars="f_16"> 
<DataArray  type="Float64"  Name="f_16"  format="ascii">-6.7560081762058993e-02  -7.9836589671711158e-02  -9.2384189736792369e-02  -1.0522729767117142e-01  -1.1838002518427634e-01  -1.3184971711510957e-01  -1.4563954597683351e-01  -1.5975039624189333e-01  -1.7418221616434795e-01  -1.8893497273401211e-01  -2.0400931267563158e-01  -2.1940700715393080e-01  -2.3513123841333047e-01  -2.5118677170668291e-01  -2.6758004454919659e-01  -2.8431919677584244e-01  -3.0141405845178459e-01  -3.1887610788808479e-01  -3.3671840845953432e-01  -3.5495553030554960e-01  -3.7360346108587456e-01  -3.9267950858277173e-01  -4.1220219695610533e-01  -4.3219115776642969e-01  -4.5266701640884044e-01  -4.7365127429140585e-01  -4.9516618690561764e-01  -5.1723463784246537e-01  -5.3988000878433307e-01  -5.6312604553347279e-01  -5.8699672020981786e-01  -6.1151608985447736e-01  -6.3670815180229579e-01  -6.6259669633024176e-01  -6.8920515724161346e-01  -7.1655646120285654e-01  -7.4467287680406258e-01  -7.7357586445987514e-01  -8.0328592839862101e-01  -8.3382247209822757e-01  -8.6520365861252324e-01  -8.9744627728601623e-01  -9.3056561837520846e-01  -9.6457535707690500e-01  -9.9948744840704562e-01  -1.0353120342768531e+00  -1.0720573639776207e+00  -1.1097297291137662e+00  -1.1483334138198800e+00  -1.1878706608667102e+00  -1.2283416540098915e+00  -1.2697445166710679e+00  -1.3120753267718799e+00  -1.3553281472752252e+00  -1.3994950717332808e+00  -1.4445662839055382e+00  -1.4905301302992244e+00  -1.5373732043045660e+00  -1.5850804404527234e+00  -1.6336352172176745e+00  -1.6830194667163363e+00  -1.7332137896335813e+00  -1.7841975737091949e+00  -1.8359491141695381e+00  -1.8884457345641337e+00  -1.9416639065722066e+00  -1.9955793674715423e+00  -2.0501672341067936e+00  -2.1054021123515030e+00  -2.1612582012228168e+00  -2.2177093909758008e+00  -2.2747293546716718e+00  -2.3322916328783045e+00  -2.3903697113199374e+00  -2.4489370914452464e+00  -2.5079673540290477e+00  -2.5674342160643482e+00  -2.6273115813412700e+00  -2.6875735852520988e+00  -2.7481946345138444e+00  -2.8091494426698644e+00  -2.8704130624315383e+00  -2.9319609161639359e+00  -2.9937688261238908e+00  -3.0558130464471955e+00  -3.1180702993815883e+00  -3.1805178189077843e+00  -3.2431334057239138e+00  -3.3058954986399702e+00  -3.3687832687996524e+00  -3.4317767448905334e+00  -3.4948569797066509e+00  -3.5580062711916334e+00  -3.6212084545313181e+00  -3.6844492861116538e+00  -3.7477169453488290e+00  -3.8110026866725302e+00  -3.8743016814225095e+00  -3.9376140981812471e+00  -4.0009464800984693e+00  -4.0643134888878762e+00  </DataArray> 
</PointData> 
</Piece>
</UnstructuredGrid>
</VTKFile>