<?xml version="1.0"?>
<VTKFile type="UnstructuredGrid"  version="0.1"  >
<UnstructuredGrid>
<Piece  NumberOfPoints="101" NumberOfCells="100">
<Points>
<DataArray  type="Float64"  NumberOfComponents="3"  format="ascii">0 0 0  0.01 0 0  0.02 0 0  0.03 0 0  0.04 0 0  0.05 0 0  0.06 0 0  0.07000000000000001 0 0  0.08 0 0  0.09 0 0  0.1 0 0  0.11 0 0  0.12 0 0  0.13 0 0  0.14 0 0  0.15 0 0  0.16 0 0  0.17 0 0  0.18 0 0  0.19 0 0  0.2 0 0  0.21 0 0  0.22 0 0  0.23 0 0  0.24 0 0  0.25 0 0  0.26 0 0  0.27 0 0  0.28 0 0  0.29 0 0  0.3 0 0  0.31 0 0  0.32 0 0  0.33 0 0  0.34 0 0  0.35 0 0  0.36 0 0  0.37 0 0  0.38 0 0  0.39 0 0  0.4 0 0  0.41 0 0  0.42 0 0  0.43 0 0  0.44 0 0  0.45 0 0  0.46 0 0  0.47 0 0  0.48 0 0  0.49 0 0  0.5 0 0  0.51 0 0  0.52 0 0  0.53 0 0  0.54 0 0  0.55 0 0  0.5600000000000001 0 0  0.57 0 0  0.58 0 0  0.59 0 0  0.6 0 0  0.61 0 0  0.62 0 0  0.63 0 0  0.64 0 0  0.65 0 0  0.66 0 0  0.67 0 0  0.68 0 0  0.6899999999999999 0 0  0.7 0 0  0.71 0 0  0.72 0 0  0.73 0 0  0.74 0 0  0.75 0 0  0.76 0 0  0.77 0 0  0.78 0 0  0.79 0 0  0.8 0 0  0.8100000000000001 0 0  0.82 0 0  0.83 0 0  0.84 0 0  0.85 0 0  0.86 0 0  0.87 0 0  0.88 0 0  0.89 0 0  0.9 0 0  0.91 0 0  0.92 0 0  0.93 0 0  0.9399999999999999 0 0  0.95 0 0  0.96 0 0  0.97 0 0  0.98 0 0  0.99 0 0  1 0 0  </DataArray>
</Points>
<Cells>
<DataArray  type="UInt32"  Name="connectivity"  format="ascii">0 1  1 2  2 3  3 4  4 5  5 6  6 7  7 8  8 9  9 10  10 11  11 12  12 13  13 14  14 15  15 16  16 17  17 18  18 19  19 20  20 21  21 22  22 23  23 24  24 25  25 26  26 27  27 28  28 29  29 30  30 31  31 32  32 33  33 34  34 35  35 36  36 37  37 38  38 39  39 40  40 41  41 42  42 43  43 44  44 45  45 46  46 47  47 48  48 49  49 50  50 51  51 52  52 53  53 54  54 55  55 56  56 57  57 58  58 59  59 60  60 61  61 62  62 63  63 64  64 65  65 66  66 67  67 68  68 69  69 70  70 71  71 72  72 73  73 74  74 75  75 76  76 77  77 78  78 79  79 80  80 81  81 82  82 83  83 84  84 85  85 86  86 87  87 88  88 89  89 90  90 91  91 92  92 93  93 94  94 95  95 96  96 97  97 98  98 99  99 100  </DataArray>
<DataArray  type="UInt32"  Name="offsets"  format="ascii">2 4 6 8 10 12 14 16 18 20 22 24 26 28 30 32 34 36 38 40 42 44 46 48 50 52 54 56 58 60 62 64 66 68 70 72 74 76 78 80 82 84 86 88 90 92 94 96 98 100 102 104 106 108 110 112 114 116 118 120 122 124 126 128 130 132 134 136 138 140 142 144 146 148 150 152 154 156 158 160 162 164 166 168 170 172 174 176 178 180 182 184 186 188 190 192 194 196 198 200 </DataArray>
<DataArray  type="UInt8"  Name="types"  format="ascii">3 3 3 3 3 3 3 3 3 3 3 3 3 3 3 3 3 3 3 3 3 3 3 3 3 3 3 3 3 3 3 3 3 3 3 3 3 3 3 3 3 3 3 3 3 3 3 3 3 3 3 3 3 3 3 3 3 3 3 3 3 3 3 3 3 3 3 3 3 3 3 3 3 3 3 3 3 3 3 3 3 3 3 3 3 3 3 3 3 3 3 3 3 3 3 3 3 3 3 3 </DataArray>
</Cells>
<PointData  Scalars="f_16"> 
<DataArray  type="Float64"  Name="f_16"  format="ascii">-3.3693871386164359e-01  -3.5761804884149395e-01  -3.7816209496361380e-01  -3.9865508622928519e-01  -4.1916938204945725e-01  -4.3976746261568267e-01  -4.6050376249733749e-01  -4.8142628863601522e-01  -5.0257800358172511e-01  -5.2399797651597613e-01  -5.4572231741609523e-01  -5.6778491650296936e-01  -5.9021801390867956e-01  -6.1305262473347411e-01  -6.3631884333792166e-01  -6.6004604853115478e-01  -6.8426302874066025e-01  -7.0899804359174334e-01  -7.3427883577828656e-01  -7.6013260478169786e-01  -7.8658595194672554e-01  -8.1366480466805347e-01  -8.4139432597308195e-01  -8.6979881458214359e-01  -8.9890159955780480e-01  -9.2872493288662705e-01  -9.5928988273619398e-01  -9.9061622966524354e-01  -1.0227223677059183e+00  -1.0556252119582730e+00  -1.0893401141156480e+00  -1.1238807871563075e+00  -1.1592592402764164e+00  -1.1954857249898747e+00  -1.2325686931728046e+00  -1.2705147676785096e+00  -1.3093287259889732e+00  -1.3490134972001466e+00  -1.3895701724610185e+00  -1.4309980288028628e+00  -1.4732945661084287e+00  -1.5164555567852298e+00  -1.5604751075269978e+00  -1.6053457323773856e+00  -1.6510584361545269e+00  -1.6976028071579872e+00  -1.7449671179642732e+00  -1.7931384330258162e+00  -1.8421027217228227e+00  -1.8918449754781783e+00  -1.9423493275324961e+00  -1.9935991739883154e+00  -2.0455772947675999e+00  -2.0982659731827313e+00  -2.1516471128953603e+00  -2.2057023511267557e+00  -2.2604131670846312e+00  -2.3157609846817242e+00  -2.3717272687379189e+00  -2.4282936139778242e+00  -2.4854418262574018e+00  -2.5431539955747389e+00  -2.6014125605402629e+00  -2.6602003640998806e+00  -2.7195007004205580e+00  -2.7792973529620091e+00  -2.8395746238712025e+00  -2.9003173549494083e+00  -2.9615109405559497e+00  -3.0231413329303956e+00  -3.0851950405374455e+00  -3.1476591201681945e+00  -3.2105211636697826e+00  -3.2737692803243910e+00  -3.3373920760598499e+00  -3.4013786308489573e+00  -3.4657184758437949e+00  -3.5304015719948683e+00  -3.5954182921219902e+00  -3.6607594086323556e+00  -3.7264160893175799e+00  -3.7923799038998998e+00  -3.8586428442298604e+00  -3.9251973612519198e+00  -3.9920364220342184e+00  -4.0591535902825635e+00  -4.1265431337973144e+00  -4.1942001622472826e+00  -4.2621207983773184e+00  -4.3303023852721063e+00  -4.3987437314866193e+00  -4.4674453946213823e+00  -4.5364100021412925e+00  -4.6056426057550297e+00  -4.6751510623019739e+00  -4.7449464296167276e+00  -4.8150433600092617e+00  -4.8854604665388557e+00  -4.9562206278887908e+00  -5.0273511860940845e+00  -5.0988839774081978e+00  </DataArray> 
</PointData> 
</Piece>
</UnstructuredGrid>
</VTKFile>