<?xml version="1.0"?>
<VTKFile type="UnstructuredGrid"  version="0.1"  >
<UnstructuredGrid>
<Piece  NumberOfPoints="101" NumberOfCells="100">
<Points>
<DataArray  type="Float64"  NumberOfComponents="3"  format="ascii">0 0 0  0.01 0 0  0.02 0 0  0.03 0 0  0.04 0 0  0.05 0 0  0.06 0 0  0.07000000000000001 0 0  0.08 0 0  0.09 0 0  0.1 0 0  0.11 0 0  0.12 0 0  0.13 0 0  0.14 0 0  0.15 0 0  0.16 0 0  0.17 0 0  0.18 0 0  0.19 0 0  0.2 0 0  0.21 0 0  0.22 0 0  0.23 0 0  0.24 0 0  0.25 0 0  0.26 0 0  0.27 0 0  0.28 0 0  0.29 0 0  0.3 0 0  0.31 0 0  0.32 0 0  0.33 0 0  0.34 0 0  0.35 0 0  0.36 0 0  0.37 0 0  0.38 0 0  0.39 0 0  0.4 0 0  0.41 0 0  0.42 0 0  0.43 0 0  0.44 0 0  0.45 0 0  0.46 0 0  0.47 0 0  0.48 0 0  0.49 0 0  0.5 0 0  0.51 0 0  0.52 0 0  0.53 0 0  0.54 0 0  0.55 0 0  0.5600000000000001 0 0  0.57 0 0  0.58 0 0  0.59 0 0  0.6 0 0  0.61 0 0  0.62 0 0  0.63 0 0  0.64 0 0  0.65 0 0  0.66 0 0  0.67 0 0  0.68 0 0  0.6899999999999999 0 0  0.7 0 0  0.71 0 0  0.72 0 0  0.73 0 0  0.74 0 0  0.75 0 0  0.76 0 0  0.77 0 0  0.78 0 0  0.79 0 0  0.8 0 0  0.8100000000000001 0 0  0.82 0 0  0.83 0 0  0.84 0 0  0.85 0 0  0.86 0 0  0.87 0 0  0.88 0 0  0.89 0 0  0.9 0 0  0.91 0 0  0.92 0 0  0.93 0 0  0.9399999999999999 0 0  0.95 0 0  0.96 0 0  0.97 0 0  0.98 0 0  0.99 0 0  1 0 0  </DataArray>
</Points>
<Cells>
<DataArray  type="UInt32"  Name="connectivity"  format="ascii">0 1  1 2  2 3  3 4  4 5  5 6  6 7  7 8  8 9  9 10  10 11  11 12  12 13  13 14  14 15  15 16  16 17  17 18  18 19  19 20  20 21  21 22  22 23  23 24  24 25  25 26  26 27  27 28  28 29  29 30  30 31  31 32  32 33  33 34  34 35  35 36  36 37  37 38  38 39  39 40  40 41  41 42  42 43  43 44  44 45  45 46  46 47  47 48  48 49  49 50  50 51  51 52  52 53  53 54  54 55  55 56  56 57  57 58  58 59  59 60  60 61  61 62  62 63  63 64  64 65  65 66  66 67  67 68  68 69  69 70  70 71  71 72  72 73  73 74  74 75  75 76  76 77  77 78  78 79  79 80  80 81  81 82  82 83  83 84  84 85  85 86  86 87  87 88  88 89  89 90  90 91  91 92  92 93  93 94  94 95  95 96  96 97  97 98  98 99  99 100  </DataArray>
<DataArray  type="UInt32"  Name="offsets"  format="ascii">2 4 6 8 10 12 14 16 18 20 22 24 26 28 30 32 34 36 38 40 42 44 46 48 50 52 54 56 58 60 62 64 66 68 70 72 74 76 78 80 82 84 86 88 90 92 94 96 98 100 102 104 106 108 110 112 114 116 118 120 122 124 126 128 130 132 134 136 138 140 142 144 146 148 150 152 154 156 158 160 162 164 166 168 170 172 174 176 178 180 182 184 186 188 190 192 194 196 198 200 </DataArray>
<DataArray  type="UInt8"  Name="types"  format="ascii">3 3 3 3 3 3 3 3 3 3 3 3 3 3 3 3 3 3 3 3 3 3 3 3 3 3 3 3 3 3 3 3 3 3 3 3 3 3 3 3 3 3 3 3 3 3 3 3 3 3 3 3 3 3 3 3 3 3 3 3 3 3 3 3 3 3 3 3 3 3 3 3 3 3 3 3 3 3 3 3 3 3 3 3 3 3 3 3 3 3 3 3 3 3 3 3 3 3 3 3 </DataArray>
</Cells>
<PointData  Scalars="f_16"> 
<DataArray  type="Float64"  Name="f_16"  format="ascii">-3.6487781701020666e-01  -3.8555501290322869e-01  -4.0781809280272413e-01  -4.3163844519144418e-01  -4.5698711729501873e-01  -4.8383416814446240e-01  -5.1214844681184357e-01  -5.4189765274531365e-01  -5.7304856728515441e-01  -6.0556737334843125e-01  -6.3942000366786156e-01  -6.7457247698193890e-01  -7.1099119654954446e-01  -7.4864319678073921e-01  -7.8749633216664072e-01  -8.2751940858798279e-01  -8.6868226098527723e-01  -9.1095578373263841e-01  -9.5431192125923892e-01  -9.9872362682912141e-01  -1.0441647971814432e+00  -1.0906101901524037e+00  -1.1380353316013176e+00  -1.1864164170598663e+00  -1.2357302125957172e+00  -1.2859539584837647e+00  -1.3370652784447492e+00  -1.3890420964619195e+00  -1.4418625625310733e+00  -1.4955049881399465e+00  -1.5499477918067142e+00  -1.6051694546285726e+00  -1.6611484854923841e+00  -1.7178633953717422e+00  -1.7752926799698361e+00  -1.8334148098565859e+00  -1.8922082271834841e+00  -1.9516513480327784e+00  -2.0117225694620560e+00  -2.0724002803345600e+00  -2.1336628750740427e+00  -2.1954887695456087e+00  -2.2578564183364671e+00  -2.3207443327890518e+00  -2.3841310992204221e+00  -2.4479953968436061e+00  -2.5123160149864754e+00  -2.5770718692801959e+00  -2.6422420165610325e+00  -2.7078056682954212e+00  -2.7737422023982097e+00  -2.8400311733675281e+00  -2.9066523207068178e+00  -2.9735855756453349e+00  -3.0408110662031724e+00  -3.1083091206760542e+00  -3.1760602696392906e+00  -3.2440452465900256e+00  -3.3122449873628925e+00  -3.3806406284670882e+00  -3.4492135045035117e+00  -3.5179451448295760e+00  -3.5868172696474807e+00  -3.6558117856997683e+00  -3.7249107817646769e+00  -3.7940965241538254e+00  -3.8633514524268771e+00  -3.9326581755526617e+00  -4.0019994687644385e+00  -4.0713582713791538e+00  -4.1407176858771280e+00  -4.2100609785699277e+00  -4.2793715822205014e+00  -4.3486331010206856e+00  -4.4178293183766000e+00  -4.4869442080012245e+00  -4.5559619488638425e+00  -4.6248669445956860e+00  -4.6936438479962224e+00  -4.7622775913199566e+00  -4.8307534230424318e+00  -4.8990569517967391e+00  -4.9671741981260507e+00  -5.0350916545973456e+00  -5.1027963546461148e+00  -5.1702759502456246e+00  -5.2375187980850360e+00  -5.3045140533588162e+00  -5.3712517694676514e+00  -5.4377230008513715e+00  -5.5039199047506724e+00  -5.5698358358502809e+00  -5.6354654254068901e+00  -5.7008046335194384e+00  -5.7658507595640591e+00  -5.8306023914030884e+00  -5.8950592687139727e+00  -5.9592220296264378e+00  -6.0230918028101792e+00  -6.0866695992984949e+00  -6.1499554498439553e+00  </DataArray> 
</PointData> 
</Piece>
</UnstructuredGrid>
</VTKFile>