<?xml version="1.0"?>
<VTKFile type="UnstructuredGrid"  version="0.1"  >
<UnstructuredGrid>
<Piece  NumberOfPoints="101" NumberOfCells="100">
<Points>
<DataArray  type="Float64"  NumberOfComponents="3"  format="ascii">0 0 0  0.01 0 0  0.02 0 0  0.03 0 0  0.04 0 0  0.05 0 0  0.06 0 0  0.07000000000000001 0 0  0.08 0 0  0.09 0 0  0.1 0 0  0.11 0 0  0.12 0 0  0.13 0 0  0.14 0 0  0.15 0 0  0.16 0 0  0.17 0 0  0.18 0 0  0.19 0 0  0.2 0 0  0.21 0 0  0.22 0 0  0.23 0 0  0.24 0 0  0.25 0 0  0.26 0 0  0.27 0 0  0.28 0 0  0.29 0 0  0.3 0 0  0.31 0 0  0.32 0 0  0.33 0 0  0.34 0 0  0.35 0 0  0.36 0 0  0.37 0 0  0.38 0 0  0.39 0 0  0.4 0 0  0.41 0 0  0.42 0 0  0.43 0 0  0.44 0 0  0.45 0 0  0.46 0 0  0.47 0 0  0.48 0 0  0.49 0 0  0.5 0 0  0.51 0 0  0.52 0 0  0.53 0 0  0.54 0 0  0.55 0 0  0.5600000000000001 0 0  0.57 0 0  0.58 0 0  0.59 0 0  0.6 0 0  0.61 0 0  0.62 0 0  0.63 0 0  0.64 0 0  0.65 0 0  0.66 0 0  0.67 0 0  0.68 0 0  0.6899999999999999 0 0  0.7 0 0  0.71 0 0  0.72 0 0  0.73 0 0  0.74 0 0  0.75 0 0  0.76 0 0  0.77 0 0  0.78 0 0  0.79 0 0  0.8 0 0  0.8100000000000001 0 0  0.82 0 0  0.83 0 0  0.84 0 0  0.85 0 0  0.86 0 0  0.87 0 0  0.88 0 0  0.89 0 0  0.9 0 0  0.91 0 0  0.92 0 0  0.93 0 0  0.9399999999999999 0 0  0.95 0 0  0.96 0 0  0.97 0 0  0.98 0 0  0.99 0 0  1 0 0  </DataArray>
</Points>
<Cells>
<DataArray  type="UInt32"  Name="connectivity"  format="ascii">0 1  1 2  2 3  3 4  4 5  5 6  6 7  7 8  8 9  9 10  10 11  11 12  12 13  13 14  14 15  15 16  16 17  17 18  18 19  19 20  20 21  21 22  22 23  23 24  24 25  25 26  26 27  27 28  28 29  29 30  30 31  31 32  32 33  33 34  34 35  35 36  36 37  37 38  38 39  39 40  40 41  41 42  42 43  43 44  44 45  45 46  46 47  47 48  48 49  49 50  50 51  51 52  52 53  53 54  54 55  55 56  56 57  57 58  58 59  59 60  60 61  61 62  62 63  63 64  64 65  65 66  66 67  67 68  68 69  69 70  70 71  71 72  72 73  73 74  74 75  75 76  76 77  77 78  78 79  79 80  80 81  81 82  82 83  83 84  84 85  85 86  86 87  87 88  88 89  89 90  90 91  91 92  92 93  93 94  94 95  95 96  96 97  97 98  98 99  99 100  </DataArray>
<DataArray  type="UInt32"  Name="offsets"  format="ascii">2 4 6 8 10 12 14 16 18 20 22 24 26 28 30 32 34 36 38 40 42 44 46 48 50 52 54 56 58 60 62 64 66 68 70 72 74 76 78 80 82 84 86 88 90 92 94 96 98 100 102 104 106 108 110 112 114 116 118 120 122 124 126 128 130 132 134 136 138 140 142 144 146 148 150 152 154 156 158 160 162 164 166 168 170 172 174 176 178 180 182 184 186 188 190 192 194 196 198 200 </DataArray>
<DataArray  type="UInt8"  Name="types"  format="ascii">3 3 3 3 3 3 3 3 3 3 3 3 3 3 3 3 3 3 3 3 3 3 3 3 3 3 3 3 3 3 3 3 3 3 3 3 3 3 3 3 3 3 3 3 3 3 3 3 3 3 3 3 3 3 3 3 3 3 3 3 3 3 3 3 3 3 3 3 3 3 3 3 3 3 3 3 3 3 3 3 3 3 3 3 3 3 3 3 3 3 3 3 3 3 3 3 3 3 3 3 </DataArray>
</Cells>
<PointData  Scalars="f_16"> 
<DataArray  type="Float64"  Name="f_16"  format="ascii">-2.3180763739341270e-01  -2.4640142458130146e-01  -2.6380556213948880e-01  -2.8396738958365791e-01  -3.0682602743352205e-01  -3.3231140103767431e-01  -3.6034396780511813e-01  -3.9083502132224368e-01  -4.2368744750868093e-01  -4.5879681342785039e-01  -4.9605267833600719e-01  -5.3534002844654405e-01  -5.7654075089288237e-01  -6.1953507756003456e-01  -6.6420294488373499e-01  -7.1042523054543727e-01  -7.5808484154774358e-01  -8.0706763996819209e-01  -8.5726320249798948e-01  -9.0856541760180631e-01  -9.6087292986207140e-01  -1.0140894449819964e+00  -1.0681239112682044e+00  -1.1228905944786740e+00  -1.1783090629881021e+00  -1.2343040995545773e+00  -1.2908055548004187e+00  -1.3477481560398239e+00  -1.4050712834508363e+00  -1.4627187239164288e+00  -1.5206384112336531e+00  -1.5787821598677030e+00  -1.6371053980441330e+00  -1.6955669047449096e+00  -1.7541285541074452e+00  -1.8127550698164299e+00  -1.8714137913164015e+00  -1.9300744530455112e+00  -1.9887089773829760e+00  -2.0472912815989948e+00  -2.1057970987815837e+00  -2.1642038124759320e+00  -2.2224903045958282e+00  -2.2806368160422528e+00  -2.3386248193815025e+00  -2.3964369028858474e+00  -2.4540566652165272e+00  -2.5114686200259286e+00  -2.5686581097681112e+00  -2.6256112280303845e+00  -2.6823147497301840e+00  -2.7387560685583301e+00  -2.7949231410899174e+00  -2.8508044370258689e+00  -2.9063888950703922e+00  -2.9616658839912486e+00  -3.0166251684501897e+00  -3.0712568792296002e+00  -3.1255514875180102e+00  -3.1794997829514036e+00  -3.2330928551390867e+00  -3.2863220784321427e+00  -3.3391790997192121e+00  -3.3916558290584873e+00  -3.4437444329764220e+00  -3.4954373302827526e+00  -3.5467271902680371e+00  -3.5976069331640188e+00  -3.6480697327586902e+00  -3.6981090210668088e+00  -3.7477184949626805e+00  -3.7968921246848204e+00  -3.8456241641212836e+00  -3.8939091627791029e+00  -3.9417419793304531e+00  -3.9891177966102660e+00  -4.0360321379130353e+00  -4.0824808843975271e+00  -4.1284602933532675e+00  -4.1739670170067233e+00  -4.2189981214412029e+00  -4.2635511050634474e+00  -4.3076239158597893e+00  -4.3512149664299660e+00  -4.3943231454470180e+00  -4.4369478237412734e+00  -4.4790888526118451e+00  -4.5207465511882834e+00  -4.5619216786441861e+00  -4.6026153857363958e+00  -4.6428291384227975e+00  -4.6825646040925637e+00  -4.7218234880918164e+00  -4.7606073045790369e+00  -4.7989170610896537e+00  -4.8367528302658904e+00  -4.8741131746831154e+00  -4.9109943811494556e+00  -4.9473894487115961e+00  -4.9832867591187808e+00  -5.0186683386549484e+00  </DataArray> 
</PointData> 
</Piece>
</UnstructuredGrid>
</VTKFile>