<?xml version="1.0"?>
<VTKFile type="UnstructuredGrid"  version="0.1"  >
<UnstructuredGrid>
<Piece  NumberOfPoints="101" NumberOfCells="100">
<Points>
<DataArray  type="Float64"  NumberOfComponents="3"  format="ascii">0 0 0  0.01 0 0  0.02 0 0  0.03 0 0  0.04 0 0  0.05 0 0  0.06 0 0  0.07000000000000001 0 0  0.08 0 0  0.09 0 0  0.1 0 0  0.11 0 0  0.12 0 0  0.13 0 0  0.14 0 0  0.15 0 0  0.16 0 0  0.17 0 0  0.18 0 0  0.19 0 0  0.2 0 0  0.21 0 0  0.22 0 0  0.23 0 0  0.24 0 0  0.25 0 0  0.26 0 0  0.27 0 0  0.28 0 0  0.29 0 0  0.3 0 0  0.31 0 0  0.32 0 0  0.33 0 0  0.34 0 0  0.35 0 0  0.36 0 0  0.37 0 0  0.38 0 0  0.39 0 0  0.4 0 0  0.41 0 0  0.42 0 0  0.43 0 0  0.44 0 0  0.45 0 0  0.46 0 0  0.47 0 0  0.48 0 0  0.49 0 0  0.5 0 0  0.51 0 0  0.52 0 0  0.53 0 0  0.54 0 0  0.55 0 0  0.5600000000000001 0 0  0.57 0 0  0.58 0 0  0.59 0 0  0.6 0 0  0.61 0 0  0.62 0 0  0.63 0 0  0.64 0 0  0.65 0 0  0.66 0 0  0.67 0 0  0.68 0 0  0.6899999999999999 0 0  0.7 0 0  0.71 0 0  0.72 0 0  0.73 0 0  0.74 0 0  0.75 0 0  0.76 0 0  0.77 0 0  0.78 0 0  0.79 0 0  0.8 0 0  0.8100000000000001 0 0  0.82 0 0  0.83 0 0  0.84 0 0  0.85 0 0  0.86 0 0  0.87 0 0  0.88 0 0  0.89 0 0  0.9 0 0  0.91 0 0  0.92 0 0  0.93 0 0  0.9399999999999999 0 0  0.95 0 0  0.96 0 0  0.97 0 0  0.98 0 0  0.99 0 0  1 0 0  </DataArray>
</Points>
<Cells>
<DataArray  type="UInt32"  Name="connectivity"  format="ascii">0 1  1 2  2 3  3 4  4 5  5 6  6 7  7 8  8 9  9 10  10 11  11 12  12 13  13 14  14 15  15 16  16 17  17 18  18 19  19 20  20 21  21 22  22 23  23 24  24 25  25 26  26 27  27 28  28 29  29 30  30 31  31 32  32 33  33 34  34 35  35 36  36 37  37 38  38 39  39 40  40 41  41 42  42 43  43 44  44 45  45 46  46 47  47 48  48 49  49 50  50 51  51 52  52 53  53 54  54 55  55 56  56 57  57 58  58 59  59 60  60 61  61 62  62 63  63 64  64 65  65 66  66 67  67 68  68 69  69 70  70 71  71 72  72 73  73 74  74 75  75 76  76 77  77 78  78 79  79 80  80 81  81 82  82 83  83 84  84 85  85 86  86 87  87 88  88 89  89 90  90 91  91 92  92 93  93 94  94 95  95 96  96 97  97 98  98 99  99 100  </DataArray>
<DataArray  type="UInt32"  Name="offsets"  format="ascii">2 4 6 8 10 12 14 16 18 20 22 24 26 28 30 32 34 36 38 40 42 44 46 48 50 52 54 56 58 60 62 64 66 68 70 72 74 76 78 80 82 84 86 88 90 92 94 96 98 100 102 104 106 108 110 112 114 116 118 120 122 124 126 128 130 132 134 136 138 140 142 144 146 148 150 152 154 156 158 160 162 164 166 168 170 172 174 176 178 180 182 184 186 188 190 192 194 196 198 200 </DataArray>
<DataArray  type="UInt8"  Name="types"  format="ascii">3 3 3 3 3 3 3 3 3 3 3 3 3 3 3 3 3 3 3 3 3 3 3 3 3 3 3 3 3 3 3 3 3 3 3 3 3 3 3 3 3 3 3 3 3 3 3 3 3 3 3 3 3 3 3 3 3 3 3 3 3 3 3 3 3 3 3 3 3 3 3 3 3 3 3 3 3 3 3 3 3 3 3 3 3 3 3 3 3 3 3 3 3 3 3 3 3 3 3 3 </DataArray>
</Cells>
<PointData  Scalars="f_16"> 
<DataArray  type="Float64"  Name="f_16"  format="ascii">-3.2164938405822803e-02  -4.3072982568963740e-02  -5.3785413520610593e-02  -6.4318031074370258e-02  -7.4687151883449696e-02  -8.4909119509463074e-02  -9.4999943456253025e-02  -1.0497504353012115e-01  -1.1484907762866359e-01  -1.2463583395393556e-01  -1.3434817186492842e-01  -1.4399799868010793e-01  -1.5359627249471150e-01  -1.6315302340788554e-01  -1.7267738745673489e-01  -1.8217764906310369e-01  -1.9166128896721901e-01  -2.0113503550771292e-01  -2.1060491776508822e-01  -2.2007631956458126e-01  -2.2955403367650082e-01  -2.3904231579197852e-01  -2.4854493801727326e-01  -2.5806524174191053e-01  -2.6760618981147544e-01  -2.7717041798708830e-01  -2.8676028570937317e-01  -2.9637792621134801e-01  -3.0602529604633555e-01  -3.1570422411641952e-01  -3.2541646030570676e-01  -3.3516372384146076e-01  -3.4494775152523643e-01  -3.5477034599526974e-01  -3.6463342420013234e-01  -3.7453906628146155e-01  -3.8448956507975668e-01  -3.9448747649108168e-01  -4.0453567091331655e-01  -4.1463738602760786e-01  -4.2479628116315010e-01  -4.3501649349061877e-01  -4.4530269628068475e-01  -4.5566015944824384e-01  -4.6609481257941326e-01  -4.7661331060603879e-01  -4.8722310225040993e-01  -4.9793250131001932e-01  -5.0875076078738524e-01  -5.1968814979198719e-01  -5.3075603304904828e-01  -5.4196695274203111e-01  -5.5333471229120790e-01  -5.6487446152855314e-01  -5.7660278256880815e-01  -5.8853777549756692e-01  -6.0069914279984316e-01  -6.1310827123774148e-01  -6.2578830965541044e-01  -6.3876424094638051e-01  -6.5206294616708171e-01  -6.6571325852678465e-01  -6.7974600473632185e-01  -6.9419403096570376e-01  -7.0909221045634396e-01  -7.2447742967155659e-01  -7.4038854976593504e-01  -7.5686634012873166e-01  -7.7395338082834741e-01  -7.9169393097495877e-01  -8.1013376034602558e-01  -8.2931994210270654e-01  -8.4930060507798444e-01  -8.7012464494749842e-01  -8.9184139460153355e-01  -9.1450025521071543e-01  -9.3815029079577905e-01  -9.6283979053656454e-01  -9.8861580453586828e-01  -1.0155236602246449e+00  -1.0436064679787100e+00  -1.0729046257269825e+00  -1.1034553332766379e+00  -1.1352921276724828e+00  -1.1684444510664429e+00  -1.2029372622346697e+00  -1.2387907020039732e+00  -1.2760198214247640e+00  -1.3146343795759547e+00  -1.3546387154643151e+00  -1.3960316956757612e+00  -1.4388067363678574e+00  -1.4829518950045268e+00  -1.5284500240870023e+00  -1.5752789762035497e+00  -1.6234118471884393e+00  -1.6728172422425733e+00  -1.7234595487360711e+00  -1.7752991993299974e+00  -1.8282929103176311e+00  -1.8823938830802889e+00  </DataArray> 
</PointData> 
</Piece>
</UnstructuredGrid>
</VTKFile>