<?xml version="1.0"?>
<VTKFile type="UnstructuredGrid"  version="0.1"  >
<UnstructuredGrid>
<Piece  NumberOfPoints="101" NumberOfCells="100">
<Points>
<DataArray  type="Float64"  NumberOfComponents="3"  format="ascii">0 0 0  0.01 0 0  0.02 0 0  0.03 0 0  0.04 0 0  0.05 0 0  0.06 0 0  0.07000000000000001 0 0  0.08 0 0  0.09 0 0  0.1 0 0  0.11 0 0  0.12 0 0  0.13 0 0  0.14 0 0  0.15 0 0  0.16 0 0  0.17 0 0  0.18 0 0  0.19 0 0  0.2 0 0  0.21 0 0  0.22 0 0  0.23 0 0  0.24 0 0  0.25 0 0  0.26 0 0  0.27 0 0  0.28 0 0  0.29 0 0  0.3 0 0  0.31 0 0  0.32 0 0  0.33 0 0  0.34 0 0  0.35 0 0  0.36 0 0  0.37 0 0  0.38 0 0  0.39 0 0  0.4 0 0  0.41 0 0  0.42 0 0  0.43 0 0  0.44 0 0  0.45 0 0  0.46 0 0  0.47 0 0  0.48 0 0  0.49 0 0  0.5 0 0  0.51 0 0  0.52 0 0  0.53 0 0  0.54 0 0  0.55 0 0  0.5600000000000001 0 0  0.57 0 0  0.58 0 0  0.59 0 0  0.6 0 0  0.61 0 0  0.62 0 0  0.63 0 0  0.64 0 0  0.65 0 0  0.66 0 0  0.67 0 0  0.68 0 0  0.6899999999999999 0 0  0.7 0 0  0.71 0 0  0.72 0 0  0.73 0 0  0.74 0 0  0.75 0 0  0.76 0 0  0.77 0 0  0.78 0 0  0.79 0 0  0.8 0 0  0.8100000000000001 0 0  0.82 0 0  0.83 0 0  0.84 0 0  0.85 0 0  0.86 0 0  0.87 0 0  0.88 0 0  0.89 0 0  0.9 0 0  0.91 0 0  0.92 0 0  0.93 0 0  0.9399999999999999 0 0  0.95 0 0  0.96 0 0  0.97 0 0  0.98 0 0  0.99 0 0  1 0 0  </DataArray>
</Points>
<Cells>
<DataArray  type="UInt32"  Name="connectivity"  format="ascii">0 1  1 2  2 3  3 4  4 5  5 6  6 7  7 8  8 9  9 10  10 11  11 12  12 13  13 14  14 15  15 16  16 17  17 18  18 19  19 20  20 21  21 22  22 23  23 24  24 25  25 26  26 27  27 28  28 29  29 30  30 31  31 32  32 33  33 34  34 35  35 36  36 37  37 38  38 39  39 40  40 41  41 42  42 43  43 44  44 45  45 46  46 47  47 48  48 49  49 50  50 51  51 52  52 53  53 54  54 55  55 56  56 57  57 58  58 59  59 60  60 61  61 62  62 63  63 64  64 65  65 66  66 67  67 68  68 69  69 70  70 71  71 72  72 73  73 74  74 75  75 76  76 77  77 78  78 79  79 80  80 81  81 82  82 83  83 84  84 85  85 86  86 87  87 88  88 89  89 90  90 91  91 92  92 93  93 94  94 95  95 96  96 97  97 98  98 99  99 100  </DataArray>
<DataArray  type="UInt32"  Name="offsets"  format="ascii">2 4 6 8 10 12 14 16 18 20 22 24 26 28 30 32 34 36 38 40 42 44 46 48 50 52 54 56 58 60 62 64 66 68 70 72 74 76 78 80 82 84 86 88 90 92 94 96 98 100 102 104 106 108 110 112 114 116 118 120 122 124 126 128 130 132 134 136 138 140 142 144 146 148 150 152 154 156 158 160 162 164 166 168 170 172 174 176 178 180 182 184 186 188 190 192 194 196 198 200 </DataArray>
<DataArray  type="UInt8"  Name="types"  format="ascii">3 3 3 3 3 3 3 3 3 3 3 3 3 3 3 3 3 3 3 3 3 3 3 3 3 3 3 3 3 3 3 3 3 3 3 3 3 3 3 3 3 3 3 3 3 3 3 3 3 3 3 3 3 3 3 3 3 3 3 3 3 3 3 3 3 3 3 3 3 3 3 3 3 3 3 3 3 3 3 3 3 3 3 3 3 3 3 3 3 3 3 3 3 3 3 3 3 3 3 3 </DataArray>
</Cells>
<PointData  Scalars="f_16"> 
<DataArray  type="Float64"  Name="f_16"  format="ascii">-1.1560478598837259e-01  -1.2885390114503631e-01  -1.4503351190868652e-01  -1.6410482749457184e-01  -1.8601773380404635e-01  -2.1070978929374504e-01  -2.3810607014676793e-01  -2.6811971139881735e-01  -3.0065298882374708e-01  -3.3559879090511485e-01  -3.7284234062675836e-01  -4.1226304208633263e-01  -4.5373634566789123e-01  -4.9713554612556482e-01  -5.4233344888913770e-01  -5.8920385986936907e-01  -6.3762287199676049e-01  -6.8746993701075632e-01  -7.3862872331143714e-01  -7.9098776997145903e-01  -8.4444095348386594e-01  -8.9888778783906798e-01  -9.5423358050538332e-01  -1.0103894672749669e+00  -1.0672723481516195e+00  -1.1248047448718381e+00  -1.1829145985772940e+00  -1.2415350238428835e+00  -1.3006040328952659e+00  -1.3600642415638897e+00  -1.4198625663761242e+00  -1.4799499202905870e+00  -1.5402809128813286e+00  -1.6008135593439052e+00  -1.6615090014830782e+00  -1.7223312428432163e+00  -1.7832468993342654e+00  -1.8442249660643917e+00  -1.9052366005912329e+00  -1.9662549224244328e+00  -2.0272548283321585e+00  -2.0882128228052341e+00  -2.1491068628984431e+00  -2.2099162165858406e+00  -2.2706213337242143e+00  -2.3312037287066474e+00  -2.3916458738987951e+00  -2.4519311029778148e+00  -2.5120435233328604e+00  -2.5719679367329138e+00  -2.6316897675193958e+00  -2.6911949976352627e+00  -2.7504701078574705e+00  -2.8095020246545719e+00  -2.8682780721449666e+00  -2.9267859286834619e+00  -2.9850135876539929e+00  -3.0429493220945156e+00  -3.1005816528262673e+00  -3.1578993198038696e+00  -3.2148912564454624e+00  -3.2715465667433206e+00  -3.3278545049956794e+00  -3.3838044580399860e+00  -3.4393859299068903e+00  -3.4945885288532672e+00  -3.5494019567716704e+00  -3.6038160010130786e+00  -3.6578205286996965e+00  -3.7114054836448700e+00  -3.7645608860377195e+00  -3.8172768350903650e+00  -3.8695435148849904e+00  -3.9213512036952056e+00  -3.9726902870896805e+00  -4.0235512751534470e+00  -4.0739248241804962e+00  -4.1238017631960666e+00  -4.1731731256527613e+00  -4.2220301866040071e+00  -4.2703645055818900e+00  -4.3181679752819404e+00  -4.3654328759692911e+00  -4.4121519352491827e+00  -4.4583183924649203e+00  -4.5039260664668319e+00  -4.5489694247972130e+00  -4.5934436514099666e+00  -4.6373447088290360e+00  -4.6806693890723752e+00  -4.7234153456363259e+00  -4.7655810962369314e+00  -4.8071659827030651e+00  -4.8481700702448034e+00  -4.8885939630765511e+00  -4.9284385068103509e+00  -4.9677043398467031e+00  -5.0063912457998399e+00  -5.0444972463236137e+00  -5.0820173579327452e+00  -5.1189419167127248e+00  </DataArray> 
</PointData> 
</Piece>
</UnstructuredGrid>
</VTKFile>