<?xml version="1.0"?>
<VTKFile type="UnstructuredGrid"  version="0.1"  >
<UnstructuredGrid>
<Piece  NumberOfPoints="101" NumberOfCells="100">
<Points>
<DataArray  type="Float64"  NumberOfComponents="3"  format="ascii">0 0 0  0.01 0 0  0.02 0 0  0.03 0 0  0.04 0 0  0.05 0 0  0.06 0 0  0.07000000000000001 0 0  0.08 0 0  0.09 0 0  0.1 0 0  0.11 0 0  0.12 0 0  0.13 0 0  0.14 0 0  0.15 0 0  0.16 0 0  0.17 0 0  0.18 0 0  0.19 0 0  0.2 0 0  0.21 0 0  0.22 0 0  0.23 0 0  0.24 0 0  0.25 0 0  0.26 0 0  0.27 0 0  0.28 0 0  0.29 0 0  0.3 0 0  0.31 0 0  0.32 0 0  0.33 0 0  0.34 0 0  0.35 0 0  0.36 0 0  0.37 0 0  0.38 0 0  0.39 0 0  0.4 0 0  0.41 0 0  0.42 0 0  0.43 0 0  0.44 0 0  0.45 0 0  0.46 0 0  0.47 0 0  0.48 0 0  0.49 0 0  0.5 0 0  0.51 0 0  0.52 0 0  0.53 0 0  0.54 0 0  0.55 0 0  0.5600000000000001 0 0  0.57 0 0  0.58 0 0  0.59 0 0  0.6 0 0  0.61 0 0  0.62 0 0  0.63 0 0  0.64 0 0  0.65 0 0  0.66 0 0  0.67 0 0  0.68 0 0  0.6899999999999999 0 0  0.7 0 0  0.71 0 0  0.72 0 0  0.73 0 0  0.74 0 0  0.75 0 0  0.76 0 0  0.77 0 0  0.78 0 0  0.79 0 0  0.8 0 0  0.8100000000000001 0 0  0.82 0 0  0.83 0 0  0.84 0 0  0.85 0 0  0.86 0 0  0.87 0 0  0.88 0 0  0.89 0 0  0.9 0 0  0.91 0 0  0.92 0 0  0.93 0 0  0.9399999999999999 0 0  0.95 0 0  0.96 0 0  0.97 0 0  0.98 0 0  0.99 0 0  1 0 0  </DataArray>
</Points>
<Cells>
<DataArray  type="UInt32"  Name="connectivity"  format="ascii">0 1  1 2  2 3  3 4  4 5  5 6  6 7  7 8  8 9  9 10  10 11  11 12  12 13  13 14  14 15  15 16  16 17  17 18  18 19  19 20  20 21  21 22  22 23  23 24  24 25  25 26  26 27  27 28  28 29  29 30  30 31  31 32  32 33  33 34  34 35  35 36  36 37  37 38  38 39  39 40  40 41  41 42  42 43  43 44  44 45  45 46  46 47  47 48  48 49  49 50  50 51  51 52  52 53  53 54  54 55  55 56  56 57  57 58  58 59  59 60  60 61  61 62  62 63  63 64  64 65  65 66  66 67  67 68  68 69  69 70  70 71  71 72  72 73  73 74  74 75  75 76  76 77  77 78  78 79  79 80  80 81  81 82  82 83  83 84  84 85  85 86  86 87  87 88  88 89  89 90  90 91  91 92  92 93  93 94  94 95  95 96  96 97  97 98  98 99  99 100  </DataArray>
<DataArray  type="UInt32"  Name="offsets"  format="ascii">2 4 6 8 10 12 14 16 18 20 22 24 26 28 30 32 34 36 38 40 42 44 46 48 50 52 54 56 58 60 62 64 66 68 70 72 74 76 78 80 82 84 86 88 90 92 94 96 98 100 102 104 106 108 110 112 114 116 118 120 122 124 126 128 130 132 134 136 138 140 142 144 146 148 150 152 154 156 158 160 162 164 166 168 170 172 174 176 178 180 182 184 186 188 190 192 194 196 198 200 </DataArray>
<DataArray  type="UInt8"  Name="types"  format="ascii">3 3 3 3 3 3 3 3 3 3 3 3 3 3 3 3 3 3 3 3 3 3 3 3 3 3 3 3 3 3 3 3 3 3 3 3 3 3 3 3 3 3 3 3 3 3 3 3 3 3 3 3 3 3 3 3 3 3 3 3 3 3 3 3 3 3 3 3 3 3 3 3 3 3 3 3 3 3 3 3 3 3 3 3 3 3 3 3 3 3 3 3 3 3 3 3 3 3 3 3 </DataArray>
</Cells>
<PointData  Scalars="f_16"> 
<DataArray  type="Float64"  Name="f_16"  format="ascii">-8.4227475026232373e-02  -9.6730544606411228e-02  -1.0891732420060304e-01  -1.2081625134537970e-01  -1.3245393337656822e-01  -1.4385515179397598e-01  -1.5504291655158414e-01  -1.6603854956348166e-01  -1.7686178344631232e-01  -1.8753086632394961e-01  -1.9806266690550497e-01  -2.0847277639508002e-01  -2.1877560538685129e-01  -2.2898447495516755e-01  -2.3911170182396174e-01  -2.4916867790863001e-01  -2.5916594475077942e-01  -2.6911326347248726e-01  -2.7901968090504697e-01  -2.8889359252780100e-01  -2.9874280280637067e-01  -3.0857458346036531e-01  -3.1839573012760919e-01  -3.2821261783073297e-01  -3.3803125559593700e-01  -3.4785734052449607e-01  -3.5769631157571197e-01  -3.6755340328539604e-01  -3.7743369961599155e-01  -3.8734218811229459e-01  -3.9728381451941625e-01  -4.0726353800610388e-01  -4.1728638712575106e-01  -4.2735751663831906e-01  -4.3748226530794465e-01  -4.4766621478222457e-01  -4.5791524964907421e-01  -4.6823561875470859e-01  -4.7863399785077021e-01  -4.8911755361900111e-01  -4.9969400909724371e-01  -5.1037171050004815e-01  -5.2115969538989759e-01  -5.3206776211017259e-01  -5.4310654033764272e-01  -5.5428756254971601e-01  -5.6562333612921212e-01  -5.7712741574645587e-01  -5.8881447556459776e-01  -6.0070038070904763e-01  -6.1280225732581783e-01  -6.2513856042685412e-01  -6.3772913858397440e-01  -6.5059529438827557e-01  -6.6375983944093186e-01  -6.7724714248709594e-01  -6.9108316915093448e-01  -7.0529551158149983e-01  -7.1991340618207567e-01  -7.3496773747689526e-01  -7.5049102607693097e-01  -7.6651739865007751e-01  -7.8308253779071779e-01  -8.0022360973023610e-01  -8.1797916794464387e-01  -8.3638903090895422e-01  -8.5549413253013928e-01  -8.7533634416948569e-01  -8.9595826764623632e-01  -9.1740299919907509e-01  -9.3971386506698662e-01  -9.6293413012719642e-01  -9.8710668187963102e-01  -1.0122736929719074e+00  -1.0384762663864919e+00  -1.0657540683259736e+00  -1.0941449546914976e+00  -1.1236845978077901e+00  -1.1544061206590437e+00  -1.1863397463181016e+00  -1.2195124704367073e+00  -1.2539477645851831e+00  -1.2896653178652322e+00  -1.3266808235629197e+00  -1.3650058166688559e+00  -1.4046475668934415e+00  -1.4456090303854618e+00  -1.4878888617732147e+00  -1.5314814864480029e+00  -1.5763772312632172e+00  -1.6225625100900465e+00  -1.6700200590080934e+00  -1.7187292143595156e+00  -1.7686662254871806e+00  -1.8198045927213164e+00  -1.8721154200668690e+00  -1.9255677710482284e+00  -1.9801290152454647e+00  -2.0357651521492075e+00  -2.0924410980028241e+00  -2.1501209202184759e+00  </DataArray> 
</PointData> 
</Piece>
</UnstructuredGrid>
</VTKFile>