<?xml version="1.0"?>
<VTKFile type="UnstructuredGrid"  version="0.1"  >
<UnstructuredGrid>
<Piece  NumberOfPoints="101" NumberOfCells="100">
<Points>
<DataArray  type="Float64"  NumberOfComponents="3"  format="ascii">0 0 0  0.01 0 0  0.02 0 0  0.03 0 0  0.04 0 0  0.05 0 0  0.06 0 0  0.07000000000000001 0 0  0.08 0 0  0.09 0 0  0.1 0 0  0.11 0 0  0.12 0 0  0.13 0 0  0.14 0 0  0.15 0 0  0.16 0 0  0.17 0 0  0.18 0 0  0.19 0 0  0.2 0 0  0.21 0 0  0.22 0 0  0.23 0 0  0.24 0 0  0.25 0 0  0.26 0 0  0.27 0 0  0.28 0 0  0.29 0 0  0.3 0 0  0.31 0 0  0.32 0 0  0.33 0 0  0.34 0 0  0.35 0 0  0.36 0 0  0.37 0 0  0.38 0 0  0.39 0 0  0.4 0 0  0.41 0 0  0.42 0 0  0.43 0 0  0.44 0 0  0.45 0 0  0.46 0 0  0.47 0 0  0.48 0 0  0.49 0 0  0.5 0 0  0.51 0 0  0.52 0 0  0.53 0 0  0.54 0 0  0.55 0 0  0.5600000000000001 0 0  0.57 0 0  0.58 0 0  0.59 0 0  0.6 0 0  0.61 0 0  0.62 0 0  0.63 0 0  0.64 0 0  0.65 0 0  0.66 0 0  0.67 0 0  0.68 0 0  0.6899999999999999 0 0  0.7 0 0  0.71 0 0  0.72 0 0  0.73 0 0  0.74 0 0  0.75 0 0  0.76 0 0  0.77 0 0  0.78 0 0  0.79 0 0  0.8 0 0  0.8100000000000001 0 0  0.82 0 0  0.83 0 0  0.84 0 0  0.85 0 0  0.86 0 0  0.87 0 0  0.88 0 0  0.89 0 0  0.9 0 0  0.91 0 0  0.92 0 0  0.93 0 0  0.9399999999999999 0 0  0.95 0 0  0.96 0 0  0.97 0 0  0.98 0 0  0.99 0 0  1 0 0  </DataArray>
</Points>
<Cells>
<DataArray  type="UInt32"  Name="connectivity"  format="ascii">0 1  1 2  2 3  3 4  4 5  5 6  6 7  7 8  8 9  9 10  10 11  11 12  12 13  13 14  14 15  15 16  16 17  17 18  18 19  19 20  20 21  21 22  22 23  23 24  24 25  25 26  26 27  27 28  28 29  29 30  30 31  31 32  32 33  33 34  34 35  35 36  36 37  37 38  38 39  39 40  40 41  41 42  42 43  43 44  44 45  45 46  46 47  47 48  48 49  49 50  50 51  51 52  52 53  53 54  54 55  55 56  56 57  57 58  58 59  59 60  60 61  61 62  62 63  63 64  64 65  65 66  66 67  67 68  68 69  69 70  70 71  71 72  72 73  73 74  74 75  75 76  76 77  77 78  78 79  79 80  80 81  81 82  82 83  83 84  84 85  85 86  86 87  87 88  88 89  89 90  90 91  91 92  92 93  93 94  94 95  95 96  96 97  97 98  98 99  99 100  </DataArray>
<DataArray  type="UInt32"  Name="offsets"  format="ascii">2 4 6 8 10 12 14 16 18 20 22 24 26 28 30 32 34 36 38 40 42 44 46 48 50 52 54 56 58 60 62 64 66 68 70 72 74 76 78 80 82 84 86 88 90 92 94 96 98 100 102 104 106 108 110 112 114 116 118 120 122 124 126 128 130 132 134 136 138 140 142 144 146 148 150 152 154 156 158 160 162 164 166 168 170 172 174 176 178 180 182 184 186 188 190 192 194 196 198 200 </DataArray>
<DataArray  type="UInt8"  Name="types"  format="ascii">3 3 3 3 3 3 3 3 3 3 3 3 3 3 3 3 3 3 3 3 3 3 3 3 3 3 3 3 3 3 3 3 3 3 3 3 3 3 3 3 3 3 3 3 3 3 3 3 3 3 3 3 3 3 3 3 3 3 3 3 3 3 3 3 3 3 3 3 3 3 3 3 3 3 3 3 3 3 3 3 3 3 3 3 3 3 3 3 3 3 3 3 3 3 3 3 3 3 3 3 </DataArray>
</Cells>
<PointData  Scalars="f_16"> 
<DataArray  type="Float64"  Name="f_16"  format="ascii">-2.8182899376819470e-01  -3.0090166336458685e-01  -3.1999227599231078e-01  -3.3909291070374686e-01  -3.5821153509269382e-01  -3.7736690753446800e-01  -3.9658498510014306e-01  -4.1589640236410758e-01  -4.3533470919052181e-01  -4.5493514486083497e-01  -4.7473379018649514e-01  -4.9476698523144474e-01  -5.1507093299781281e-01  -5.3568143263970192e-01  -5.5663370218881481e-01  -5.7796226237134574e-01  -5.9970086128182609e-01  -6.2188242546581562e-01  -6.4453902706668187e-01  -6.6770185961965456e-01  -6.9140121718624448e-01  -7.1566647306439068e-01  -7.4052605545878025e-01  -7.6600741837221908e-01  -7.9213700666528575e-01  -8.1894021478350343e-01  -8.4644133910592012e-01  -8.7466352425018179e-01  -9.0362870399175566e-01  -9.3335753772760321e-01  -9.6386934364187282e-01  -9.9518202991502813e-01  -1.0273120254586818e+00  -1.0602742117559185e+00  -1.0940818574406408e+00  -1.1287465572592856e+00  -1.1642781770246455e+00  -1.2006848060958315e+00  -1.2379727188029910e+00  -1.2761463460836660e+00  -1.3152082584140918e+00  -1.3551591609087259e+00  -1.3959979012310417e+00  -1.4377214907149545e+00  -1.4803251388463001e+00  -1.5238023010047681e+00  -1.5681447391256345e+00  -1.6133425947140287e+00  -1.6593844734381316e+00  -1.7062575403464302e+00  -1.7539476246017545e+00  -1.8024393325037571e+00  -1.8517161674831464e+00  -1.9017606556953774e+00  -1.9525544758176252e+00  -2.0040785916586445e+00  -2.0563133862236596e+00  -2.1092387959321584e+00  -2.1628344437613833e+00  -2.2170797701781235e+00  -2.2719541608218159e+00  -2.3274370700086822e+00  -2.3835081392357305e+00  -2.4401473099713296e+00  -2.4973349301225678e+00  -2.5550518536661579e+00  -2.6132795330171463e+00  -2.6720001037866297e+00  -2.7311964616450468e+00  -2.7908523310608939e+00  -2.8509523257257112e+00  -2.9114820005050914e+00  -2.9724278947726361e+00  -3.0337775669895226e+00  -3.0955196203870625e+00  -3.1576437195931586e+00  -3.2201405980154356e+00  -3.2830020557525348e+00  -3.3462209477480886e+00  -3.4097911618249510e+00  -3.4737075861339930e+00  -3.5379660654129563e+00  -3.6025633452635990e+00  -3.6674970034021426e+00  -3.7327653664952773e+00  -3.7983674107308358e+00  -3.8643026436480938e+00  -3.9305709639154847e+00  -3.9971724946260725e+00  -4.0641073841980360e+00  -4.1313755670097354e+00  -4.1989764733286403e+00  -4.2669086747351779e+00  -4.3351694468735538e+00  -4.4037542256970541e+00  -4.4726559260491392e+00  -4.5418640819578737e+00  -4.6113637557934526e+00  -4.6811341476079020e+00  -4.7511468153972176e+00  -4.8213633901001973e+00  </DataArray> 
</PointData> 
</Piece>
</UnstructuredGrid>
</VTKFile>