<?xml version="1.0"?>
<VTKFile type="UnstructuredGrid"  version="0.1"  >
<UnstructuredGrid>
<Piece  NumberOfPoints="101" NumberOfCells="100">
<Points>
<DataArray  type="Float64"  NumberOfComponents="3"  format="ascii">0 0 0  0.01 0 0  0.02 0 0  0.03 0 0  0.04 0 0  0.05 0 0  0.06 0 0  0.07000000000000001 0 0  0.08 0 0  0.09 0 0  0.1 0 0  0.11 0 0  0.12 0 0  0.13 0 0  0.14 0 0  0.15 0 0  0.16 0 0  0.17 0 0  0.18 0 0  0.19 0 0  0.2 0 0  0.21 0 0  0.22 0 0  0.23 0 0  0.24 0 0  0.25 0 0  0.26 0 0  0.27 0 0  0.28 0 0  0.29 0 0  0.3 0 0  0.31 0 0  0.32 0 0  0.33 0 0  0.34 0 0  0.35 0 0  0.36 0 0  0.37 0 0  0.38 0 0  0.39 0 0  0.4 0 0  0.41 0 0  0.42 0 0  0.43 0 0  0.44 0 0  0.45 0 0  0.46 0 0  0.47 0 0  0.48 0 0  0.49 0 0  0.5 0 0  0.51 0 0  0.52 0 0  0.53 0 0  0.54 0 0  0.55 0 0  0.5600000000000001 0 0  0.57 0 0  0.58 0 0  0.59 0 0  0.6 0 0  0.61 0 0  0.62 0 0  0.63 0 0  0.64 0 0  0.65 0 0  0.66 0 0  0.67 0 0  0.68 0 0  0.6899999999999999 0 0  0.7 0 0  0.71 0 0  0.72 0 0  0.73 0 0  0.74 0 0  0.75 0 0  0.76 0 0  0.77 0 0  0.78 0 0  0.79 0 0  0.8 0 0  0.8100000000000001 0 0  0.82 0 0  0.83 0 0  0.84 0 0  0.85 0 0  0.86 0 0  0.87 0 0  0.88 0 0  0.89 0 0  0.9 0 0  0.91 0 0  0.92 0 0  0.93 0 0  0.9399999999999999 0 0  0.95 0 0  0.96 0 0  0.97 0 0  0.98 0 0  0.99 0 0  1 0 0  </DataArray>
</Points>
<Cells>
<DataArray  type="UInt32"  Name="connectivity"  format="ascii">0 1  1 2  2 3  3 4  4 5  5 6  6 7  7 8  8 9  9 10  10 11  11 12  12 13  13 14  14 15  15 16  16 17  17 18  18 19  19 20  20 21  21 22  22 23  23 24  24 25  25 26  26 27  27 28  28 29  29 30  30 31  31 32  32 33  33 34  34 35  35 36  36 37  37 38  38 39  39 40  40 41  41 42  42 43  43 44  44 45  45 46  46 47  47 48  48 49  49 50  50 51  51 52  52 53  53 54  54 55  55 56  56 57  57 58  58 59  59 60  60 61  61 62  62 63  63 64  64 65  65 66  66 67  67 68  68 69  69 70  70 71  71 72  72 73  73 74  74 75  75 76  76 77  77 78  78 79  79 80  80 81  81 82  82 83  83 84  84 85  85 86  86 87  87 88  88 89  89 90  90 91  91 92  92 93  93 94  94 95  95 96  96 97  97 98  98 99  99 100  </DataArray>
<DataArray  type="UInt32"  Name="offsets"  format="ascii">2 4 6 8 10 12 14 16 18 20 22 24 26 28 30 32 34 36 38 40 42 44 46 48 50 52 54 56 58 60 62 64 66 68 70 72 74 76 78 80 82 84 86 88 90 92 94 96 98 100 102 104 106 108 110 112 114 116 118 120 122 124 126 128 130 132 134 136 138 140 142 144 146 148 150 152 154 156 158 160 162 164 166 168 170 172 174 176 178 180 182 184 186 188 190 192 194 196 198 200 </DataArray>
<DataArray  type="UInt8"  Name="types"  format="ascii">3 3 3 3 3 3 3 3 3 3 3 3 3 3 3 3 3 3 3 3 3 3 3 3 3 3 3 3 3 3 3 3 3 3 3 3 3 3 3 3 3 3 3 3 3 3 3 3 3 3 3 3 3 3 3 3 3 3 3 3 3 3 3 3 3 3 3 3 3 3 3 3 3 3 3 3 3 3 3 3 3 3 3 3 3 3 3 3 3 3 3 3 3 3 3 3 3 3 3 3 </DataArray>
</Cells>
<PointData  Scalars="f_16"> 
<DataArray  type="Float64"  Name="f_16"  format="ascii">-5.2823656474944664e-02  -6.4549858027230761e-02  -7.6323542418643600e-02  -8.8096429851500443e-02  -9.9831755865836702e-02  -1.1150227499817358e-01  -1.2308854501267638e-01  -1.3457746759841258e-01  -1.4596105819689706e-01  -1.5723541707471930e-01  -1.6839987484824542e-01  -1.7945628768582358e-01  -1.9040845987925681e-01  -2.0126167408155102e-01  -2.1202231206129876e-01  -2.2269755121531190e-01  -2.3329512425365725e-01  -2.4382313140309575e-01  -2.5428989616560843e-01  -2.6470385713039857e-01  -2.7507348958944783e-01  -2.8540725177030951e-01  -2.9571355139785710e-01  -3.0600072905087156e-01  -3.1627705540970763e-01  -3.2655074001590056e-01  -3.3682994959941120e-01  -3.4712283438812819e-01  -3.5743756110915625e-01  -3.6778235163245648e-01  -3.7816552640308160e-01  -3.8859555196570578e-01  -3.9908109201027181e-01  -4.0963106146521772e-01  -4.2025468323883430e-01  -4.3096154726302144e-01  -4.4176167152956464e-01  -4.5266556482903475e-01  -4.6368429090805457e-01  -4.7482953375314085e-01  -4.8611366368952225e-01  -4.9754980395192228e-01  -5.0915189734182165e-01  -5.2093477253264131e-01  -5.3291420952107349e-01  -5.4510700364994491e-01  -5.5753102754618777e-01  -5.7020529022756816e-01  -5.8314999253492805e-01  -5.9638657794434558e-01  -6.0993777770775204e-01  -6.2382764916364342e-01  -6.3808160595464125e-01  -6.5272643878951109e-01  -6.6779032529822779e-01  -6.8330282745488791e-01  -6.9929487499047505e-01  -7.1579873319205867e-01  -7.3284795349376974e-01  -7.5047730531494883e-01  -7.6872268769924967e-01  -7.8762101946187113e-01  -8.0721010676629812e-01  -8.2752848733137363e-01  -8.4861525081666855e-01  -8.7050983534881021e-01  -8.9325180063033138e-01  -9.1688057860859185e-01  -9.4143520326409014e-01  -9.6695402168928146e-01  -9.9347438925068421e-01  -1.0210323522343434e+00  -1.0496623219400472e+00  -1.0793967446831456e+00  -1.1102657725537646e+00  -1.1422969400419305e+00  -1.1755148517368892e+00  -1.2099408862280840e+00  -1.2455929210591234e+00  -1.2824850831086620e+00  -1.3206275280972382e+00  -1.3600262520610091e+00  -1.4006829366163682e+00  -1.4425948286972006e+00  -1.4857546542199833e+00  -1.5301505638671173e+00  -1.5757661079239940e+00  -1.6225802359078998e+00  -1.6705673156307659e+00  -1.7196971653806445e+00  -1.7699350921181463e+00  -1.8212419279840011e+00  -1.8735740570128525e+00  -1.9268834237475299e+00  -1.9811175154408465e+00  -2.0362193097063250e+00  -2.0921271798204972e+00  -2.1487747503742431e+00  -2.2060906966114731e+00  -2.2639984815846534e+00  -2.3224160262215205e+00  </DataArray> 
</PointData> 
</Piece>
</UnstructuredGrid>
</VTKFile>