<?xml version="1.0"?>
<VTKFile type="UnstructuredGrid"  version="0.1"  >
<UnstructuredGrid>
<Piece  NumberOfPoints="101" NumberOfCells="100">
<Points>
<DataArray  type="Float64"  NumberOfComponents="3"  format="ascii">0 0 0  0.01 0 0  0.02 0 0  0.03 0 0  0.04 0 0  0.05 0 0  0.06 0 0  0.07000000000000001 0 0  0.08 0 0  0.09 0 0  0.1 0 0  0.11 0 0  0.12 0 0  0.13 0 0  0.14 0 0  0.15 0 0  0.16 0 0  0.17 0 0  0.18 0 0  0.19 0 0  0.2 0 0  0.21 0 0  0.22 0 0  0.23 0 0  0.24 0 0  0.25 0 0  0.26 0 0  0.27 0 0  0.28 0 0  0.29 0 0  0.3 0 0  0.31 0 0  0.32 0 0  0.33 0 0  0.34 0 0  0.35 0 0  0.36 0 0  0.37 0 0  0.38 0 0  0.39 0 0  0.4 0 0  0.41 0 0  0.42 0 0  0.43 0 0  0.44 0 0  0.45 0 0  0.46 0 0  0.47 0 0  0.48 0 0  0.49 0 0  0.5 0 0  0.51 0 0  0.52 0 0  0.53 0 0  0.54 0 0  0.55 0 0  0.5600000000000001 0 0  0.57 0 0  0.58 0 0  0.59 0 0  0.6 0 0  0.61 0 0  0.62 0 0  0.63 0 0  0.64 0 0  0.65 0 0  0.66 0 0  0.67 0 0  0.68 0 0  0.6899999999999999 0 0  0.7 0 0  0.71 0 0  0.72 0 0  0.73 0 0  0.74 0 0  0.75 0 0  0.76 0 0  0.77 0 0  0.78 0 0  0.79 0 0  0.8 0 0  0.8100000000000001 0 0  0.82 0 0  0.83 0 0  0.84 0 0  0.85 0 0  0.86 0 0  0.87 0 0  0.88 0 0  0.89 0 0  0.9 0 0  0.91 0 0  0.92 0 0  0.93 0 0  0.9399999999999999 0 0  0.95 0 0  0.96 0 0  0.97 0 0  0.98 0 0  0.99 0 0  1 0 0  </DataArray>
</Points>
<Cells>
<DataArray  type="UInt32"  Name="connectivity"  format="ascii">0 1  1 2  2 3  3 4  4 5  5 6  6 7  7 8  8 9  9 10  10 11  11 12  12 13  13 14  14 15  15 16  16 17  17 18  18 19  19 20  20 21  21 22  22 23  23 24  24 25  25 26  26 27  27 28  28 29  29 30  30 31  31 32  32 33  33 34  34 35  35 36  36 37  37 38  38 39  39 40  40 41  41 42  42 43  43 44  44 45  45 46  46 47  47 48  48 49  49 50  50 51  51 52  52 53  53 54  54 55  55 56  56 57  57 58  58 59  59 60  60 61  61 62  62 63  63 64  64 65  65 66  66 67  67 68  68 69  69 70  70 71  71 72  72 73  73 74  74 75  75 76  76 77  77 78  78 79  79 80  80 81  81 82  82 83  83 84  84 85  85 86  86 87  87 88  88 89  89 90  90 91  91 92  92 93  93 94  94 95  95 96  96 97  97 98  98 99  99 100  </DataArray>
<DataArray  type="UInt32"  Name="offsets"  format="ascii">2 4 6 8 10 12 14 16 18 20 22 24 26 28 30 32 34 36 38 40 42 44 46 48 50 52 54 56 58 60 62 64 66 68 70 72 74 76 78 80 82 84 86 88 90 92 94 96 98 100 102 104 106 108 110 112 114 116 118 120 122 124 126 128 130 132 134 136 138 140 142 144 146 148 150 152 154 156 158 160 162 164 166 168 170 172 174 176 178 180 182 184 186 188 190 192 194 196 198 200 </DataArray>
<DataArray  type="UInt8"  Name="types"  format="ascii">3 3 3 3 3 3 3 3 3 3 3 3 3 3 3 3 3 3 3 3 3 3 3 3 3 3 3 3 3 3 3 3 3 3 3 3 3 3 3 3 3 3 3 3 3 3 3 3 3 3 3 3 3 3 3 3 3 3 3 3 3 3 3 3 3 3 3 3 3 3 3 3 3 3 3 3 3 3 3 3 3 3 3 3 3 3 3 3 3 3 3 3 3 3 3 3 3 3 3 3 </DataArray>
</Cells>
<PointData  Scalars="f_16"> 
<DataArray  type="Float64"  Name="f_16"  format="ascii">-9.7472857063856125e-02  -1.1061836569665830e-01  -1.2372796954078846e-01  -1.3675395598394469e-01  -1.4966596154392750e-01  -1.6244619057035792e-01  -1.7508588258434918e-01  -1.8758271256568770e-01  -1.9993888623468364e-01  -2.1215975198318607e-01  -2.2425279626663600e-01  -2.3622692320675073e-01  -2.4809194452931801e-01  -2.5985822487623977e-01  -2.7153644160896379e-01  -2.8313742869503083e-01  -2.9467208206699130e-01  -3.0615130965396259e-01  -3.1758601362277972e-01  -3.2898709560675371e-01  -3.4036547812511381e-01  -3.5173213721168739e-01  -3.6309814262981827e-01  -3.7447470306489972e-01  -3.8587321444012440e-01  -3.9730531005769282e-01  -4.0878291167363079e-01  -4.2031828090481738e-01  -4.3192407056847315e-01  -4.4361337568749010e-01  -4.5539978397506869e-01  -4.6729742565104787e-01  -4.7932102244922531e-01  -4.9148593565695325e-01  -5.0380821299089840e-01  -5.1630463406042371e-01  -5.2899275410607849e-01  -5.4189094562802931e-01  -5.5501843744038437e-01  -5.6839535060442170e-01  -5.8204273060882528e-01  -5.9598257508022867e-01  -6.1023785622486504e-01  -6.2483253712431630e-01  -6.3979158093790867e-01  -6.5514095200418099e-01  -6.7090760778737524e-01  -6.8711948058570849e-01  -7.0380544791021848e-01  -7.2099529046039956e-01  -7.3871963666992391e-01  -7.5700989287668308e-01  -7.7589815829013231e-01  -7.9541712408887166e-01  -8.1559995618515713e-01  -8.3648016144200144e-01  -8.5809143742262750e-01  -8.8046750608930535e-01  -9.0364193224490974e-01  -9.2764792791927897e-01  -9.5251814433445070e-01  -9.7828445352621973e-01  -1.0049777221398466e+00  -1.0326275803385310e+00  -1.0612621891461831e+00  -1.0909080098718180e+00  -1.1215895795122788e+00  -1.1533292961846529e+00  -1.1861472186835498e+00  -1.2200608841784684e+00  -1.2550851478542668e+00  -1.2912320479498469e+00  -1.3285106991689870e+00  -1.3669272168309679e+00  -1.4064846734112431e+00  -1.4471830883127679e+00  -1.4890194508294965e+00  -1.5319877753401618e+00  -1.5760791868285240e+00  -1.6212820338902685e+00  -1.6675820254777902e+00  -1.7149623867680774e+00  -1.7634040287246333e+00  -1.8128857251620139e+00  -1.8633842904011515e+00  -1.9148747499040164e+00  -1.9673304955634159e+00  -2.0207234165501964e+00  -2.0750239957223720e+00  -2.1302013604974523e+00  -2.1862232756778286e+00  -2.2430560638708825e+00  -2.3006644366989519e+00  -2.3590112167454995e+00  -2.4180569258726168e+00  -2.4777592098355163e+00  -2.5380720615722887e+00  -2.5989447955775185e+00  -2.6603207125862434e+00  -2.7221353763129605e+00  -2.7843144006834919e+00  </DataArray> 
</PointData> 
</Piece>
</UnstructuredGrid>
</VTKFile>