<?xml version="1.0"?>
<VTKFile type="UnstructuredGrid"  version="0.1"  >
<UnstructuredGrid>
<Piece  NumberOfPoints="101" NumberOfCells="100">
<Points>
<DataArray  type="Float64"  NumberOfComponents="3"  format="ascii">0 0 0  0.01 0 0  0.02 0 0  0.03 0 0  0.04 0 0  0.05 0 0  0.06 0 0  0.07000000000000001 0 0  0.08 0 0  0.09 0 0  0.1 0 0  0.11 0 0  0.12 0 0  0.13 0 0  0.14 0 0  0.15 0 0  0.16 0 0  0.17 0 0  0.18 0 0  0.19 0 0  0.2 0 0  0.21 0 0  0.22 0 0  0.23 0 0  0.24 0 0  0.25 0 0  0.26 0 0  0.27 0 0  0.28 0 0  0.29 0 0  0.3 0 0  0.31 0 0  0.32 0 0  0.33 0 0  0.34 0 0  0.35 0 0  0.36 0 0  0.37 0 0  0.38 0 0  0.39 0 0  0.4 0 0  0.41 0 0  0.42 0 0  0.43 0 0  0.44 0 0  0.45 0 0  0.46 0 0  0.47 0 0  0.48 0 0  0.49 0 0  0.5 0 0  0.51 0 0  0.52 0 0  0.53 0 0  0.54 0 0  0.55 0 0  0.5600000000000001 0 0  0.57 0 0  0.58 0 0  0.59 0 0  0.6 0 0  0.61 0 0  0.62 0 0  0.63 0 0  0.64 0 0  0.65 0 0  0.66 0 0  0.67 0 0  0.68 0 0  0.6899999999999999 0 0  0.7 0 0  0.71 0 0  0.72 0 0  0.73 0 0  0.74 0 0  0.75 0 0  0.76 0 0  0.77 0 0  0.78 0 0  0.79 0 0  0.8 0 0  0.8100000000000001 0 0  0.82 0 0  0.83 0 0  0.84 0 0  0.85 0 0  0.86 0 0  0.87 0 0  0.88 0 0  0.89 0 0  0.9 0 0  0.91 0 0  0.92 0 0  0.93 0 0  0.9399999999999999 0 0  0.95 0 0  0.96 0 0  0.97 0 0  0.98 0 0  0.99 0 0  1 0 0  </DataArray>
</Points>
<Cells>
<DataArray  type="UInt32"  Name="connectivity"  format="ascii">0 1  1 2  2 3  3 4  4 5  5 6  6 7  7 8  8 9  9 10  10 11  11 12  12 13  13 14  14 15  15 16  16 17  17 18  18 19  19 20  20 21  21 22  22 23  23 24  24 25  25 26  26 27  27 28  28 29  29 30  30 31  31 32  32 33  33 34  34 35  35 36  36 37  37 38  38 39  39 40  40 41  41 42  42 43  43 44  44 45  45 46  46 47  47 48  48 49  49 50  50 51  51 52  52 53  53 54  54 55  55 56  56 57  57 58  58 59  59 60  60 61  61 62  62 63  63 64  64 65  65 66  66 67  67 68  68 69  69 70  70 71  71 72  72 73  73 74  74 75  75 76  76 77  77 78  78 79  79 80  80 81  81 82  82 83  83 84  84 85  85 86  86 87  87 88  88 89  89 90  90 91  91 92  92 93  93 94  94 95  95 96  96 97  97 98  98 99  99 100  </DataArray>
<DataArray  type="UInt32"  Name="offsets"  format="ascii">2 4 6 8 10 12 14 16 18 20 22 24 26 28 30 32 34 36 38 40 42 44 46 48 50 52 54 56 58 60 62 64 66 68 70 72 74 76 78 80 82 84 86 88 90 92 94 96 98 100 102 104 106 108 110 112 114 116 118 120 122 124 126 128 130 132 134 136 138 140 142 144 146 148 150 152 154 156 158 160 162 164 166 168 170 172 174 176 178 180 182 184 186 188 190 192 194 196 198 200 </DataArray>
<DataArray  type="UInt8"  Name="types"  format="ascii">3 3 3 3 3 3 3 3 3 3 3 3 3 3 3 3 3 3 3 3 3 3 3 3 3 3 3 3 3 3 3 3 3 3 3 3 3 3 3 3 3 3 3 3 3 3 3 3 3 3 3 3 3 3 3 3 3 3 3 3 3 3 3 3 3 3 3 3 3 3 3 3 3 3 3 3 3 3 3 3 3 3 3 3 3 3 3 3 3 3 3 3 3 3 3 3 3 3 3 3 </DataArray>
</Cells>
<PointData  Scalars="f_16"> 
<DataArray  type="Float64"  Name="f_16"  format="ascii">1.1256626975670626e-01  1.0596621689208600e-01  9.9147470807457366e-02  9.2097360029708461e-02  8.4809797688532834e-02  7.7284586567721053e-02  6.9526465092952044e-02  6.1544074923620844e-02  5.3348960775309276e-02  4.4954665121759760e-02  3.6375948226959283e-02  2.7628142991157165e-02  1.8726641049451442e-02  9.6864990234595792e-03  5.2215003723038022e-04  -8.7527957044334220e-03  -1.8125677224296397e-02  -2.7584850739386560e-02  -3.7119712397548514e-02  -4.6720687047320783e-02  -5.6379192458007446e-02  -6.6087586675516355e-02  -7.5839104645143499e-02  -8.5627788881378647e-02  -9.5448417820567621e-02  -1.0529643454451730e-01  -1.1516787779374325e-01  -1.2505931657632394e-01  -1.3496778919968172e-01  -1.4489074718634559e-01  -1.5482600426095242e-01  -1.6477169039677955e-01  -1.7472621077076383e-01  -1.8468820938340791e-01  -1.9465653704356836e-01  -2.0463022338918641e-01  -2.1460845260661038e-01  -2.2459054251777866e-01  -2.3457592672193542e-01  -2.4456413950350309e-01  -2.5455480324785767e-01  -2.6454761814033706e-01  -2.7454235395972099e-01  -2.8453884381495659e-01  -2.9453697971274206e-01  -3.0453670988368653e-01  -3.1453803783636147e-01  -3.2454102315206462e-01  -3.3454578407914504e-01  -3.4455250203504573e-01  -3.5456142817773312e-01  -3.6457289226694850e-01  -3.7458731410093693e-01  -3.8460521788730917e-01  -3.9462724998892640e-01  -4.0465420057875201e-01  -4.1468702984316380e-01  -4.2472689949304132e-01  -4.3477521047783307e-01  -4.4483364795155395e-01  -4.5490423471293517e-01  -4.6498939453615279e-01  -4.7509202702468339e-01  -4.8521559585915575e-01  -4.9536423256980799e-01  -5.0554285824304923e-01  -5.1575732586523060e-01  -5.2601458630770137e-01  -5.3632288125423455e-01  -5.4669196664834474e-01  -5.5713337047039702e-01  -5.6766068881031495e-01  -5.7828992423750980e-01  -5.8903987032769700e-01  -5.9993254581184075e-01  -6.1099368107059704e-01  -6.2225325849009872e-01  -6.3374610637799289e-01  -6.4551254354242615e-01  -6.5759906806741464e-01  -6.7005907906527817e-01  -6.8295361403786181e-01  -6.9635207674325383e-01  -7.1033292101603362e-01  -7.2498424481896973e-01  -7.4040423610349881e-01  -7.5670139831569438e-01  -7.7399446951272532e-01  -7.9241193650454567e-01  -8.1209103631192214e-01  -8.3317613434894855e-01  -8.5581637557353651e-01  -8.8016252534133732e-01  -9.0636295483914209e-01  -9.3455878518638835e-01  -9.6487828665483522e-01  -9.9743073492933643e-01  -1.0323000522946000e+00  -1.0695387030843153e+00  -1.1091624635657338e+00  -1.1511468420196269e+00  </DataArray> 
</PointData> 
</Piece>
</UnstructuredGrid>
</VTKFile>