<?xml version="1.0"?>
<VTKFile type="UnstructuredGrid"  version="0.1"  >
<UnstructuredGrid>
<Piece  NumberOfPoints="101" NumberOfCells="100">
<Points>
<DataArray  type="Float64"  NumberOfComponents="3"  format="ascii">0 0 0  0.01 0 0  0.02 0 0  0.03 0 0  0.04 0 0  0.05 0 0  0.06 0 0  0.07000000000000001 0 0  0.08 0 0  0.09 0 0  0.1 0 0  0.11 0 0  0.12 0 0  0.13 0 0  0.14 0 0  0.15 0 0  0.16 0 0  0.17 0 0  0.18 0 0  0.19 0 0  0.2 0 0  0.21 0 0  0.22 0 0  0.23 0 0  0.24 0 0  0.25 0 0  0.26 0 0  0.27 0 0  0.28 0 0  0.29 0 0  0.3 0 0  0.31 0 0  0.32 0 0  0.33 0 0  0.34 0 0  0.35 0 0  0.36 0 0  0.37 0 0  0.38 0 0  0.39 0 0  0.4 0 0  0.41 0 0  0.42 0 0  0.43 0 0  0.44 0 0  0.45 0 0  0.46 0 0  0.47 0 0  0.48 0 0  0.49 0 0  0.5 0 0  0.51 0 0  0.52 0 0  0.53 0 0  0.54 0 0  0.55 0 0  0.5600000000000001 0 0  0.57 0 0  0.58 0 0  0.59 0 0  0.6 0 0  0.61 0 0  0.62 0 0  0.63 0 0  0.64 0 0  0.65 0 0  0.66 0 0  0.67 0 0  0.68 0 0  0.6899999999999999 0 0  0.7 0 0  0.71 0 0  0.72 0 0  0.73 0 0  0.74 0 0  0.75 0 0  0.76 0 0  0.77 0 0  0.78 0 0  0.79 0 0  0.8 0 0  0.8100000000000001 0 0  0.82 0 0  0.83 0 0  0.84 0 0  0.85 0 0  0.86 0 0  0.87 0 0  0.88 0 0  0.89 0 0  0.9 0 0  0.91 0 0  0.92 0 0  0.93 0 0  0.9399999999999999 0 0  0.95 0 0  0.96 0 0  0.97 0 0  0.98 0 0  0.99 0 0  1 0 0  </DataArray>
</Points>
<Cells>
<DataArray  type="UInt32"  Name="connectivity"  format="ascii">0 1  1 2  2 3  3 4  4 5  5 6  6 7  7 8  8 9  9 10  10 11  11 12  12 13  13 14  14 15  15 16  16 17  17 18  18 19  19 20  20 21  21 22  22 23  23 24  24 25  25 26  26 27  27 28  28 29  29 30  30 31  31 32  32 33  33 34  34 35  35 36  36 37  37 38  38 39  39 40  40 41  41 42  42 43  43 44  44 45  45 46  46 47  47 48  48 49  49 50  50 51  51 52  52 53  53 54  54 55  55 56  56 57  57 58  58 59  59 60  60 61  61 62  62 63  63 64  64 65  65 66  66 67  67 68  68 69  69 70  70 71  71 72  72 73  73 74  74 75  75 76  76 77  77 78  78 79  79 80  80 81  81 82  82 83  83 84  84 85  85 86  86 87  87 88  88 89  89 90  90 91  91 92  92 93  93 94  94 95  95 96  96 97  97 98  98 99  99 100  </DataArray>
<DataArray  type="UInt32"  Name="offsets"  format="ascii">2 4 6 8 10 12 14 16 18 20 22 24 26 28 30 32 34 36 38 40 42 44 46 48 50 52 54 56 58 60 62 64 66 68 70 72 74 76 78 80 82 84 86 88 90 92 94 96 98 100 102 104 106 108 110 112 114 116 118 120 122 124 126 128 130 132 134 136 138 140 142 144 146 148 150 152 154 156 158 160 162 164 166 168 170 172 174 176 178 180 182 184 186 188 190 192 194 196 198 200 </DataArray>
<DataArray  type="UInt8"  Name="types"  format="ascii">3 3 3 3 3 3 3 3 3 3 3 3 3 3 3 3 3 3 3 3 3 3 3 3 3 3 3 3 3 3 3 3 3 3 3 3 3 3 3 3 3 3 3 3 3 3 3 3 3 3 3 3 3 3 3 3 3 3 3 3 3 3 3 3 3 3 3 3 3 3 3 3 3 3 3 3 3 3 3 3 3 3 3 3 3 3 3 3 3 3 3 3 3 3 3 3 3 3 3 3 </DataArray>
</Cells>
<PointData  Scalars="f_16"> 
<DataArray  type="Float64"  Name="f_16"  format="ascii">-9.1647179117315791e-02  -1.0457793848080586e-01  -1.1745268032370747e-01  -1.3026030814429931e-01  -1.4299046391062967e-01  -1.5563456674355849e-01  -1.6818629326845880e-01  -1.8064170749210987e-01  -1.9299918163885776e-01  -2.0525920250999424e-01  -2.1742412515439413e-01  -2.2949791296717129e-01  -2.4148588785717265e-01  -2.5339450373182354e-01  -2.6523114971535927e-01  -2.7700398515141761e-01  -2.8872180576562551e-01  -3.0039393882859849e-01  -3.1203016437936715e-01  -3.2364065927586111e-01  -3.3523596084848850e-01  -3.4682694711983753e-01  -3.5842483083429622e-01  -3.7004116486097915e-01  -3.8168785685673917e-01  -3.9337719138182231e-01  -4.0512185793671146e-01  -4.1693498362882991e-01  -4.2883016937996382e-01  -4.4082152874995378e-01  -4.5292372858135588e-01  -4.6515203076619427e-01  -4.7752233450284870e-01  -4.9005121845190408e-01  -5.0275598221780016e-01  -5.1565468658159763e-01  -5.2876619189226937e-01  -5.4211019399262195e-01  -5.5570725701421064e-01  -5.6957884232628975e-01  -5.8374733286988778e-01  -5.9823605205246611e-01  -6.1306927632445252e-01  -6.2827224050950825e-01  -6.4387113491916881e-01  -6.5989309325320455e-01  -6.7636617027353130e-01  -6.9331930824582255e-01  -7.1078229117320590e-01  -7.2878568590461912e-01  -7.4736076929039030e-01  -7.6653944068278956e-01  -7.8635411924246768e-01  -8.0683762571465223e-01  -8.2802304858236186e-01  -8.4994359478678227e-01  -8.7263242552463316e-01  -8.9612247798403433e-01  -9.2044627425704917e-01  -9.4563571905936927e-01  -9.7172188828390238e-01  -9.9873481080157533e-01  -1.0267032462840708e+00  -1.0556544621428634e+00  -1.0856140129397880e+00  -1.1166055258098599e+00  -1.1486504955320220e+00  -1.1817680928751659e+00  -1.2159749897259218e+00  -1.2512852042663747e+00  -1.2877099691141685e+00  -1.3252576248699732e+00  -1.3639335409492293e+00  -1.4037400649229039e+00  -1.4446765008770919e+00  -1.4867391165487458e+00  -1.5299211782325890e+00  -1.5742130117116730e+00  -1.6196020867705823e+00  -1.6660731222344258e+00  -1.7136082079649024e+00  -1.7621869398606844e+00  -1.8117865636741177e+00  -1.8623821233882880e+00  -1.9139466100147577e+00  -1.9664511069895894e+00  -2.0198649288824346e+00  -2.0741557509141790e+00  -2.1292897278348253e+00  -2.1852316020897011e+00  -2.2419448029614628e+00  -2.2993915406055732e+00  -2.3575329017190358e+00  -2.4163289571617126e+00  -2.4757388964098190e+00  -2.5357212095612152e+00  -2.5962339451285739e+00  -2.6572350815718249e+00  -2.7186830631174099e+00  -2.7805375667701053e+00  -2.8427605886668288e+00  </DataArray> 
</PointData> 
</Piece>
</UnstructuredGrid>
</VTKFile>