<?xml version="1.0"?>
<VTKFile type="UnstructuredGrid"  version="0.1"  >
<UnstructuredGrid>
<Piece  NumberOfPoints="101" NumberOfCells="100">
<Points>
<DataArray  type="Float64"  NumberOfComponents="3"  format="ascii">0 0 0  0.01 0 0  0.02 0 0  0.03 0 0  0.04 0 0  0.05 0 0  0.06 0 0  0.07000000000000001 0 0  0.08 0 0  0.09 0 0  0.1 0 0  0.11 0 0  0.12 0 0  0.13 0 0  0.14 0 0  0.15 0 0  0.16 0 0  0.17 0 0  0.18 0 0  0.19 0 0  0.2 0 0  0.21 0 0  0.22 0 0  0.23 0 0  0.24 0 0  0.25 0 0  0.26 0 0  0.27 0 0  0.28 0 0  0.29 0 0  0.3 0 0  0.31 0 0  0.32 0 0  0.33 0 0  0.34 0 0  0.35 0 0  0.36 0 0  0.37 0 0  0.38 0 0  0.39 0 0  0.4 0 0  0.41 0 0  0.42 0 0  0.43 0 0  0.44 0 0  0.45 0 0  0.46 0 0  0.47 0 0  0.48 0 0  0.49 0 0  0.5 0 0  0.51 0 0  0.52 0 0  0.53 0 0  0.54 0 0  0.55 0 0  0.5600000000000001 0 0  0.57 0 0  0.58 0 0  0.59 0 0  0.6 0 0  0.61 0 0  0.62 0 0  0.63 0 0  0.64 0 0  0.65 0 0  0.66 0 0  0.67 0 0  0.68 0 0  0.6899999999999999 0 0  0.7 0 0  0.71 0 0  0.72 0 0  0.73 0 0  0.74 0 0  0.75 0 0  0.76 0 0  0.77 0 0  0.78 0 0  0.79 0 0  0.8 0 0  0.8100000000000001 0 0  0.82 0 0  0.83 0 0  0.84 0 0  0.85 0 0  0.86 0 0  0.87 0 0  0.88 0 0  0.89 0 0  0.9 0 0  0.91 0 0  0.92 0 0  0.93 0 0  0.9399999999999999 0 0  0.95 0 0  0.96 0 0  0.97 0 0  0.98 0 0  0.99 0 0  1 0 0  </DataArray>
</Points>
<Cells>
<DataArray  type="UInt32"  Name="connectivity"  format="ascii">0 1  1 2  2 3  3 4  4 5  5 6  6 7  7 8  8 9  9 10  10 11  11 12  12 13  13 14  14 15  15 16  16 17  17 18  18 19  19 20  20 21  21 22  22 23  23 24  24 25  25 26  26 27  27 28  28 29  29 30  30 31  31 32  32 33  33 34  34 35  35 36  36 37  37 38  38 39  39 40  40 41  41 42  42 43  43 44  44 45  45 46  46 47  47 48  48 49  49 50  50 51  51 52  52 53  53 54  54 55  55 56  56 57  57 58  58 59  59 60  60 61  61 62  62 63  63 64  64 65  65 66  66 67  67 68  68 69  69 70  70 71  71 72  72 73  73 74  74 75  75 76  76 77  77 78  78 79  79 80  80 81  81 82  82 83  83 84  84 85  85 86  86 87  87 88  88 89  89 90  90 91  91 92  92 93  93 94  94 95  95 96  96 97  97 98  98 99  99 100  </DataArray>
<DataArray  type="UInt32"  Name="offsets"  format="ascii">2 4 6 8 10 12 14 16 18 20 22 24 26 28 30 32 34 36 38 40 42 44 46 48 50 52 54 56 58 60 62 64 66 68 70 72 74 76 78 80 82 84 86 88 90 92 94 96 98 100 102 104 106 108 110 112 114 116 118 120 122 124 126 128 130 132 134 136 138 140 142 144 146 148 150 152 154 156 158 160 162 164 166 168 170 172 174 176 178 180 182 184 186 188 190 192 194 196 198 200 </DataArray>
<DataArray  type="UInt8"  Name="types"  format="ascii">3 3 3 3 3 3 3 3 3 3 3 3 3 3 3 3 3 3 3 3 3 3 3 3 3 3 3 3 3 3 3 3 3 3 3 3 3 3 3 3 3 3 3 3 3 3 3 3 3 3 3 3 3 3 3 3 3 3 3 3 3 3 3 3 3 3 3 3 3 3 3 3 3 3 3 3 3 3 3 3 3 3 3 3 3 3 3 3 3 3 3 3 3 3 3 3 3 3 3 3 </DataArray>
</Cells>
<PointData  Scalars="f_16"> 
<DataArray  type="Float64"  Name="f_16"  format="ascii">5.6915543371090928e-02  4.8762477663139417e-02  4.0717792237742793e-02  3.2724989351794409e-02  2.4739400524694276e-02  1.6726126623748814e-02  8.6583655372922241e-03  5.1603515821425092e-04  -7.7153751058478921e-03  -1.6045772540784209e-02  -2.4481283982130127e-02  -3.3024958813070951e-02  -4.1677371007008447e-02  -5.0437134576174283e-02  -5.9301343695828956e-02  -6.8265946682656148e-02  -7.7326061587727993e-02  -8.6476240183563716e-02  -9.5710686417073185e-02  -1.0502343485458740e-01  -1.1440849418984239e-01  -1.2385996047675886e-01  -1.3337210436154404e-01  -1.4293943621130847e-01  -1.5255675266540566e-01  -1.6221916777212814e-01  -1.7192213152064581e-01  -1.8166143824036537e-01  -1.9143322702129084e-01  -2.0123397601286633e-01  -2.1106049218764730e-01  -2.2090989791147267e-01  -2.3077961544419270e-01  -2.4066735030425335e-01  -2.5057107426574932e-01  -2.6048900861666541e-01  -2.7041960819035554e-01  -2.8036154658710166e-01  -2.9031370292703201e-01  -3.0027515041793063e-01  -3.1024514697982147e-01  -3.2022312814103177e-01  -3.3020870240628369e-01  -3.4020164929493124e-01  -3.5020192025563335e-01  -3.6020964268156963e-01  -3.7022512727695683e-01  -3.8024887906042321e-01  -3.9028161233315656e-01  -4.0032426998913184e-01  -4.1037804760063828e-01  -4.2044442277421856e-01  -4.3052519033937031e-01  -4.4062250400414704e-01  -4.5073892518708097e-01  -4.6087747981225408e-01  -4.7104172393200749e-01  -4.8123581911726671e-01  -4.9146461862557489e-01  -5.0173376541753534e-01  -5.1204980313822168e-01  -5.2242030120457705e-01  -5.3285399513467835e-01  -5.4336094320989048e-01  -5.5395270046417233e-01  -5.6464251083158168e-01  -5.7544551803632105e-01  -5.8637899545985561e-01  -5.9746259474470520e-01  -6.0871861227035251e-01  -6.2017227183796908e-01  -6.3185202090195391e-01  -6.4378983646424703e-01  -6.5602153528345086e-01  -6.6858708133523614e-01  -6.8153088149747443e-01  -6.9490205824764928e-01  -7.0875468580416034e-01  -7.2314797370697115e-01  -7.3814637945261463e-01  -7.5381962966444904e-01  -7.7024262764254836e-01  -7.8749522431210206e-01  -8.0566182994405933e-01  -8.2483084596525225e-01  -8.4509390012364338e-01  -8.6654487460471741e-01  -8.8927872568185995e-01  -9.1339010522202557e-01  -9.3897180869193786e-01  -9.6611309071695706e-01  -9.9489790684513402e-01  -1.0254031576798814e+00  -1.0576970273448338e+00  -1.0918375205021069e+00  -1.1278713090166466e+00  -1.1658329992399656e+00  -1.2057449226795562e+00  -1.2476175361792028e+00  -1.2914504932377384e+00  -1.3372344173187001e+00  </DataArray> 
</PointData> 
</Piece>
</UnstructuredGrid>
</VTKFile>