<?xml version="1.0"?>
<VTKFile type="UnstructuredGrid"  version="0.1"  >
<UnstructuredGrid>
<Piece  NumberOfPoints="101" NumberOfCells="100">
<Points>
<DataArray  type="Float64"  NumberOfComponents="3"  format="ascii">0 0 0  0.01 0 0  0.02 0 0  0.03 0 0  0.04 0 0  0.05 0 0  0.06 0 0  0.07000000000000001 0 0  0.08 0 0  0.09 0 0  0.1 0 0  0.11 0 0  0.12 0 0  0.13 0 0  0.14 0 0  0.15 0 0  0.16 0 0  0.17 0 0  0.18 0 0  0.19 0 0  0.2 0 0  0.21 0 0  0.22 0 0  0.23 0 0  0.24 0 0  0.25 0 0  0.26 0 0  0.27 0 0  0.28 0 0  0.29 0 0  0.3 0 0  0.31 0 0  0.32 0 0  0.33 0 0  0.34 0 0  0.35 0 0  0.36 0 0  0.37 0 0  0.38 0 0  0.39 0 0  0.4 0 0  0.41 0 0  0.42 0 0  0.43 0 0  0.44 0 0  0.45 0 0  0.46 0 0  0.47 0 0  0.48 0 0  0.49 0 0  0.5 0 0  0.51 0 0  0.52 0 0  0.53 0 0  0.54 0 0  0.55 0 0  0.5600000000000001 0 0  0.57 0 0  0.58 0 0  0.59 0 0  0.6 0 0  0.61 0 0  0.62 0 0  0.63 0 0  0.64 0 0  0.65 0 0  0.66 0 0  0.67 0 0  0.68 0 0  0.6899999999999999 0 0  0.7 0 0  0.71 0 0  0.72 0 0  0.73 0 0  0.74 0 0  0.75 0 0  0.76 0 0  0.77 0 0  0.78 0 0  0.79 0 0  0.8 0 0  0.8100000000000001 0 0  0.82 0 0  0.83 0 0  0.84 0 0  0.85 0 0  0.86 0 0  0.87 0 0  0.88 0 0  0.89 0 0  0.9 0 0  0.91 0 0  0.92 0 0  0.93 0 0  0.9399999999999999 0 0  0.95 0 0  0.96 0 0  0.97 0 0  0.98 0 0  0.99 0 0  1 0 0  </DataArray>
</Points>
<Cells>
<DataArray  type="UInt32"  Name="connectivity"  format="ascii">0 1  1 2  2 3  3 4  4 5  5 6  6 7  7 8  8 9  9 10  10 11  11 12  12 13  13 14  14 15  15 16  16 17  17 18  18 19  19 20  20 21  21 22  22 23  23 24  24 25  25 26  26 27  27 28  28 29  29 30  30 31  31 32  32 33  33 34  34 35  35 36  36 37  37 38  38 39  39 40  40 41  41 42  42 43  43 44  44 45  45 46  46 47  47 48  48 49  49 50  50 51  51 52  52 53  53 54  54 55  55 56  56 57  57 58  58 59  59 60  60 61  61 62  62 63  63 64  64 65  65 66  66 67  67 68  68 69  69 70  70 71  71 72  72 73  73 74  74 75  75 76  76 77  77 78  78 79  79 80  80 81  81 82  82 83  83 84  84 85  85 86  86 87  87 88  88 89  89 90  90 91  91 92  92 93  93 94  94 95  95 96  96 97  97 98  98 99  99 100  </DataArray>
<DataArray  type="UInt32"  Name="offsets"  format="ascii">2 4 6 8 10 12 14 16 18 20 22 24 26 28 30 32 34 36 38 40 42 44 46 48 50 52 54 56 58 60 62 64 66 68 70 72 74 76 78 80 82 84 86 88 90 92 94 96 98 100 102 104 106 108 110 112 114 116 118 120 122 124 126 128 130 132 134 136 138 140 142 144 146 148 150 152 154 156 158 160 162 164 166 168 170 172 174 176 178 180 182 184 186 188 190 192 194 196 198 200 </DataArray>
<DataArray  type="UInt8"  Name="types"  format="ascii">3 3 3 3 3 3 3 3 3 3 3 3 3 3 3 3 3 3 3 3 3 3 3 3 3 3 3 3 3 3 3 3 3 3 3 3 3 3 3 3 3 3 3 3 3 3 3 3 3 3 3 3 3 3 3 3 3 3 3 3 3 3 3 3 3 3 3 3 3 3 3 3 3 3 3 3 3 3 3 3 3 3 3 3 3 3 3 3 3 3 3 3 3 3 3 3 3 3 3 3 </DataArray>
</Cells>
<PointData  Scalars="f_16"> 
<DataArray  type="Float64"  Name="f_16"  format="ascii">-3.0803794579404492e-01  -3.2769014864555285e-01  -3.4691305920226095e-01  -3.6583381350600885e-01  -3.8455576493696675e-01  -4.0316484085340137e-01  -4.2173410593408445e-01  -4.4032704436357673e-01  -4.5899992529503081e-01  -4.7780351202983662e-01  -4.9678430141177915e-01  -5.1598542700270233e-01  -5.3544732155447827e-01  -5.5520820687695971e-01  -5.7530445944383168e-01  -5.9577088585912141e-01  -6.1664093210619098e-01  -6.3794684321998896e-01  -6.5971978486487937e-01  -6.8198993468373670e-01  -7.0478654878522173e-01  -7.2813800704526010e-01  -7.5207183978888703e-01  -7.7661473772373846e-01  -8.0179254659492327e-01  -8.2763024783365524e-01  -8.5415192641345794e-01  -8.8138072715988647e-01  -9.0933880084704533e-01  -9.3804724153042407e-01  -9.6752601669107752e-01  -9.9779389188621870e-01  -1.0288683517047861e+00  -1.0607655189051612e+00  -1.0935000736598439e+00  -1.1270851748442681e+00  -1.1615323852813846e+00  -1.1968516027889990e+00  -1.2330509987733729e+00  -1.2701369659718791e+00  -1.3081140767724637e+00  -1.3469850533323748e+00  -1.3867507504882919e+00  -1.4274101522006029e+00  -1.4689603820129333e+00  -1.5113967277411708e+00  -1.5547126803414724e+00  -1.5988999866511078e+00  -1.6439487154561634e+00  -1.6898473361219719e+00  -1.7365828088306505e+00  -1.7841406853091661e+00  -1.8325052188035367e+00  -1.8816594819614925e+00  -1.9315854912272379e+00  -1.9822643363267987e+00  -2.0336763134286460e+00  -2.0858010605987984e+00  -2.1386176942286670e+00  -2.1921049451932277e+00  -2.2462412935922034e+00  -2.3010051010330947e+00  -2.3563747395276788e+00  -2.4123287161886870e+00  -2.4688457930270333e+00  -2.5259051012587923e+00  -2.5834862496325681e+00  -2.6415694263799057e+00  -2.7001354944727374e+00  -2.7591660799421431e+00  -2.8186436530722019e+00  -2.8785516023326925e+00  -2.9388743009569791e+00  -2.9995971661095719e+00  -3.0607067106257744e+00  -3.1221905873486966e+00  -3.1840376261432857e+00  -3.2462378637409439e+00  -3.3087825666714998e+00  -3.3716642476835337e+00  -3.4348766762535243e+00  -3.4984148840558378e+00  -3.5622751666295724e+00  -3.6264550829588122e+00  -3.6909534553087378e+00  -3.7557703724656148e+00  -3.8209072005544780e+00  -3.8863666069026896e+00  -3.9521526040372401e+00  -4.0182706229157654e+00  -4.0847276269740007e+00  -4.1515322816166433e+00  -4.2186951974883700e+00  -4.2862292703537648e+00  -4.3541501458164511e+00  -4.4224768435504984e+00  -4.4912325833257594e+00  -4.5604458639789724e+00  -4.6301518566442654e+00  -4.7003941849135620e+00  -4.7712271768291341e+00  </DataArray> 
</PointData> 
</Piece>
</UnstructuredGrid>
</VTKFile>