<?xml version="1.0"?>
<VTKFile type="UnstructuredGrid"  version="0.1"  >
<UnstructuredGrid>
<Piece  NumberOfPoints="101" NumberOfCells="100">
<Points>
<DataArray  type="Float64"  NumberOfComponents="3"  format="ascii">0 0 0  0.01 0 0  0.02 0 0  0.03 0 0  0.04 0 0  0.05 0 0  0.06 0 0  0.07000000000000001 0 0  0.08 0 0  0.09 0 0  0.1 0 0  0.11 0 0  0.12 0 0  0.13 0 0  0.14 0 0  0.15 0 0  0.16 0 0  0.17 0 0  0.18 0 0  0.19 0 0  0.2 0 0  0.21 0 0  0.22 0 0  0.23 0 0  0.24 0 0  0.25 0 0  0.26 0 0  0.27 0 0  0.28 0 0  0.29 0 0  0.3 0 0  0.31 0 0  0.32 0 0  0.33 0 0  0.34 0 0  0.35 0 0  0.36 0 0  0.37 0 0  0.38 0 0  0.39 0 0  0.4 0 0  0.41 0 0  0.42 0 0  0.43 0 0  0.44 0 0  0.45 0 0  0.46 0 0  0.47 0 0  0.48 0 0  0.49 0 0  0.5 0 0  0.51 0 0  0.52 0 0  0.53 0 0  0.54 0 0  0.55 0 0  0.5600000000000001 0 0  0.57 0 0  0.58 0 0  0.59 0 0  0.6 0 0  0.61 0 0  0.62 0 0  0.63 0 0  0.64 0 0  0.65 0 0  0.66 0 0  0.67 0 0  0.68 0 0  0.6899999999999999 0 0  0.7 0 0  0.71 0 0  0.72 0 0  0.73 0 0  0.74 0 0  0.75 0 0  0.76 0 0  0.77 0 0  0.78 0 0  0.79 0 0  0.8 0 0  0.8100000000000001 0 0  0.82 0 0  0.83 0 0  0.84 0 0  0.85 0 0  0.86 0 0  0.87 0 0  0.88 0 0  0.89 0 0  0.9 0 0  0.91 0 0  0.92 0 0  0.93 0 0  0.9399999999999999 0 0  0.95 0 0  0.96 0 0  0.97 0 0  0.98 0 0  0.99 0 0  1 0 0  </DataArray>
</Points>
<Cells>
<DataArray  type="UInt32"  Name="connectivity"  format="ascii">0 1  1 2  2 3  3 4  4 5  5 6  6 7  7 8  8 9  9 10  10 11  11 12  12 13  13 14  14 15  15 16  16 17  17 18  18 19  19 20  20 21  21 22  22 23  23 24  24 25  25 26  26 27  27 28  28 29  29 30  30 31  31 32  32 33  33 34  34 35  35 36  36 37  37 38  38 39  39 40  40 41  41 42  42 43  43 44  44 45  45 46  46 47  47 48  48 49  49 50  50 51  51 52  52 53  53 54  54 55  55 56  56 57  57 58  58 59  59 60  60 61  61 62  62 63  63 64  64 65  65 66  66 67  67 68  68 69  69 70  70 71  71 72  72 73  73 74  74 75  75 76  76 77  77 78  78 79  79 80  80 81  81 82  82 83  83 84  84 85  85 86  86 87  87 88  88 89  89 90  90 91  91 92  92 93  93 94  94 95  95 96  96 97  97 98  98 99  99 100  </DataArray>
<DataArray  type="UInt32"  Name="offsets"  format="ascii">2 4 6 8 10 12 14 16 18 20 22 24 26 28 30 32 34 36 38 40 42 44 46 48 50 52 54 56 58 60 62 64 66 68 70 72 74 76 78 80 82 84 86 88 90 92 94 96 98 100 102 104 106 108 110 112 114 116 118 120 122 124 126 128 130 132 134 136 138 140 142 144 146 148 150 152 154 156 158 160 162 164 166 168 170 172 174 176 178 180 182 184 186 188 190 192 194 196 198 200 </DataArray>
<DataArray  type="UInt8"  Name="types"  format="ascii">3 3 3 3 3 3 3 3 3 3 3 3 3 3 3 3 3 3 3 3 3 3 3 3 3 3 3 3 3 3 3 3 3 3 3 3 3 3 3 3 3 3 3 3 3 3 3 3 3 3 3 3 3 3 3 3 3 3 3 3 3 3 3 3 3 3 3 3 3 3 3 3 3 3 3 3 3 3 3 3 3 3 3 3 3 3 3 3 3 3 3 3 3 3 3 3 3 3 3 3 </DataArray>
</Cells>
<PointData  Scalars="f_16"> 
<DataArray  type="Float64"  Name="f_16"  format="ascii">-1.0873333845435469e-01  -1.2205251911294622e-01  -1.3505854466216491e-01  -1.4782758686862377e-01  -1.6041991309021122e-01  -1.7288321986753963e-01  -1.8525529360976759e-01  -1.9756614379864554e-01  -2.0983971939427259e-01  -2.2209529356564592e-01  -2.3434858285954785e-01  -2.4661265263762122e-01  -2.5889864977027177e-01  -2.7121639526493502e-01  -2.8357486307060764e-01  -2.9598256626689462e-01  -3.0844786786930439e-01  -3.2097923031029452e-01  -3.3358541510103690e-01  -3.4627564210338785e-01  -3.5905971614132554e-01  -3.7194812727782112e-01  -3.8495212991706823e-01  -3.9808380491732076e-01  -4.1135610808060913e-01  -4.2478290769431915e-01  -4.3837901321381323e-01  -4.5216019667719282e-01  -4.6614320801864428e-01  -4.8034578508402392e-01  -4.9478665884208967e-01  -5.0948555401956208e-01  -5.2446318516204216e-01  -5.3974124793105316e-01  -5.5534240528661860e-01  -5.7129026807231220e-01  -5.8760936941399800e-01  -6.0432513226364448e-01  -6.2146382936546041e-01  -6.3905253489347513e-01  -6.5711906700836265e-01  -6.7569192060781180e-01  -6.9480018960026246e-01  -7.1447347811749673e-01  -7.3474180019830926e-01  -7.5563546762375711e-01  -7.7718496576416995e-01  -7.9942081750817695e-01  -8.2237343558244602e-01  -8.4607296383437403e-01  -8.7054910833403221e-01  -8.9583095945021918e-01  -9.2194680636110649e-01  -9.4892394576390127e-01  -9.7678848684032882e-01  -1.0055651548048394e+00  -1.0352770955991248e+00  -1.0659456844887312e+00  -1.0975903414548405e+00  -1.1302283563475037e+00  -1.1638747267684451e+00  -1.1985420115771492e+00  -1.2342402027614088e+00  -1.2709766181841435e+00  -1.3087558174169780e+00  -1.3475795425059438e+00  -1.3874466850972080e+00  -1.4283532808950068e+00  -1.4702925319462221e+00  -1.5132548567637494e+00  -1.5572279678319159e+00  -1.6021969755991592e+00  -1.6481445176720957e+00  -1.6950509115950114e+00  -1.7428943293410730e+00  -1.7916509914644563e+00  -1.8412953787711486e+00  -1.8918004593622366e+00  -1.9431379289859045e+00  -1.9952784627994744e+00  -2.0481919768850321e+00  -2.1018478981745807e+00  -2.1562154418157791e+00  -2.2112638954398025e+00  -2.2669629102722055e+00  -2.3232827995506997e+00  -2.3801948452773734e+00  -2.4376716149360953e+00  -2.4956872904504452e+00  -2.5542180123476310e+00  -2.6132422428363120e+00  -2.6727411523095403e+00  -2.7326990346579203e+00  -2.7931037577316991e+00  -2.8539472563301858e+00  -2.9152260762226687e+00  -2.9769419789051410e+00  -3.0391026180408089e+00  -3.1017222997586944e+00  -3.1648228400879832e+00  -3.2284345336154456e+00  </DataArray> 
</PointData> 
</Piece>
</UnstructuredGrid>
</VTKFile>